phonopy:
  version: "2.43.2"
  frequency_unit_conversion_factor: 15.633302
  symmetry_tolerance: 1.00000e-05
  configuration:
    cell_filename: "../CONTCAR"
    create_displacements: ".true."
    dim: "1 1 1"

physical_unit:
  atomic_mass: "AMU"
  length: "angstrom"

space_group:
  type: "P1"
  number: 1
  Hall_symbol: "P 1"

supercell_matrix:
- [   1,   0,   0 ]
- [   0,   1,   0 ]
- [   0,   0,   1 ]

primitive_cell:
  lattice:
  - [     3.072999477400000,     0.000000000000000,     0.000000000000000 ] # a
  - [     0.000000000000000,    15.967777252199999,     0.000000000000000 ] # b
  - [     0.000000000000000,     0.000000000000000,    36.000000000000000 ] # c
  points:
  - symbol: Ga # 1
    coordinates: [  0.499994330659996,  0.081647188253033,  0.654663301873021 ]
    mass: 69.723000
  - symbol: Ga # 2
    coordinates: [  0.999997536904484,  0.240923834145929,  0.604545430893267 ]
    mass: 69.723000
  - symbol: Ga # 3
    coordinates: [  0.999986144512193,  0.124469612179525,  0.776225964816744 ]
    mass: 69.723000
  - symbol: Ga # 4
    coordinates: [  0.999993644408933,  0.236329809439518,  0.700139777230194 ]
    mass: 69.723000
  - symbol: Ga # 5
    coordinates: [  0.499976859337968,  0.395276842641655,  0.653577462443066 ]
    mass: 69.723000
  - symbol: Ga # 6
    coordinates: [  0.500027209030189,  0.505754772601211,  0.575472601886626 ]
    mass: 69.723000
  - symbol: Ga # 7
    coordinates: [  0.499978524821691,  0.302180764979489,  0.787661794624773 ]
    mass: 69.723000
  - symbol: Ga # 8
    coordinates: [  0.999996359864175,  0.458584705177303,  0.734768899041878 ]
    mass: 69.723000
  - symbol: Ga # 9
    coordinates: [  0.999997504303144,  0.581646767143805,  0.654662729680493 ]
    mass: 69.723000
  - symbol: Ga # 10
    coordinates: [  0.500003036431896,  0.740922703168487,  0.604543965923760 ]
    mass: 69.723000
  - symbol: Ga # 11
    coordinates: [  0.499992828889261,  0.624474753725286,  0.776227644227295 ]
    mass: 69.723000
  - symbol: Ga # 12
    coordinates: [  0.499995803274090,  0.736331005722774,  0.700137718331745 ]
    mass: 69.723000
  - symbol: Ga # 13
    coordinates: [  0.999994967364912,  0.895277668788889,  0.653575283989061 ]
    mass: 69.723000
  - symbol: Ga # 14
    coordinates: [  0.999975857442030,  0.005753531284048,  0.575473165113051 ]
    mass: 69.723000
  - symbol: Ga # 15
    coordinates: [  0.999924830666172,  0.802174239717995,  0.787659707396621 ]
    mass: 69.723000
  - symbol: Ga # 16
    coordinates: [  0.499999468888627,  0.958582590759366,  0.734768397514623 ]
    mass: 69.723000
  - symbol: O # 17
    coordinates: [  0.000000820988187,  0.016913399871748,  0.626250945932611 ]
    mass: 15.999400
  - symbol: O # 18
    coordinates: [  0.000043904924718,  0.231726694488909,  0.554928041922873 ]
    mass: 15.999400
  - symbol: O # 19
    coordinates: [  0.500003412706953,  0.182258644888178,  0.621103922232840 ]
    mass: 15.999400
  - symbol: O # 20
    coordinates: [  0.999995786038949,  0.124797664875819,  0.682641139850360 ]
    mass: 15.999400
  - symbol: O # 21
    coordinates: [  0.499986862534889,  0.066227031574445,  0.756635457905149 ]
    mass: 15.999400
  - symbol: O # 22
    coordinates: [  0.500007240931972,  0.403517122194733,  0.554111020776345 ]
    mass: 15.999400
  - symbol: O # 23
    coordinates: [  0.999975920287376,  0.350437531581420,  0.625872876786202 ]
    mass: 15.999400
  - symbol: O # 24
    coordinates: [  0.499995215283831,  0.295704374148326,  0.687272651781310 ]
    mass: 15.999400
  - symbol: O # 25
    coordinates: [  0.999948026128650,  0.233187566755799,  0.752254810820583 ]
    mass: 15.999400
  - symbol: O # 26
    coordinates: [  0.000028977906351,  0.560540324886174,  0.554708879940442 ]
    mass: 15.999400
  - symbol: O # 27
    coordinates: [  0.500006053312598,  0.516912524913356,  0.626251100559723 ]
    mass: 15.999400
  - symbol: O # 28
    coordinates: [  0.999993872578110,  0.460217782519467,  0.681822164249344 ]
    mass: 15.999400
  - symbol: O # 29
    coordinates: [  0.499997409250963,  0.406547193760845,  0.752212324516618 ]
    mass: 15.999400
  - symbol: O # 30
    coordinates: [  0.500015133940150,  0.731694772432519,  0.554927295216220 ]
    mass: 15.999400
  - symbol: O # 31
    coordinates: [  0.000000604989650,  0.682258816799231,  0.621102310128179 ]
    mass: 15.999400
  - symbol: O # 32
    coordinates: [  0.500000256717162,  0.624796944638521,  0.682641102942575 ]
    mass: 15.999400
  - symbol: O # 33
    coordinates: [  0.999992802403373,  0.566221065234300,  0.756635426179905 ]
    mass: 15.999400
  - symbol: O # 34
    coordinates: [  0.000001805717509,  0.903513877806191,  0.554111544803123 ]
    mass: 15.999400
  - symbol: O # 35
    coordinates: [  0.499994806086684,  0.850441339774869,  0.625868121333596 ]
    mass: 15.999400
  - symbol: O # 36
    coordinates: [  0.999998462700043,  0.795705043416720,  0.687269336373797 ]
    mass: 15.999400
  - symbol: O # 37
    coordinates: [  0.499959847658941,  0.733193143674799,  0.752251182187772 ]
    mass: 15.999400
  - symbol: O # 38
    coordinates: [  0.499976511566536,  0.060543233246061,  0.554710481908924 ]
    mass: 15.999400
  - symbol: O # 39
    coordinates: [  0.499995982805991,  0.960216213433779,  0.681821774164836 ]
    mass: 15.999400
  - symbol: O # 40
    coordinates: [  0.000000303993613,  0.906548606767431,  0.752212659184229 ]
    mass: 15.999400
  - symbol: Si # 41
    coordinates: [  0.000002056031735,  0.899165167149807,  0.229247968593349 ]
    mass: 28.085500
  - symbol: Si # 42
    coordinates: [  0.000001766841040,  0.565817251267699,  0.229276567978046 ]
    mass: 28.085500
  - symbol: Si # 43
    coordinates: [  0.000002612419793,  0.232455910261574,  0.229230743910346 ]
    mass: 28.085500
  - symbol: Si # 44
    coordinates: [  0.499998826793763,  0.065816311428480,  0.229277103468471 ]
    mass: 28.085500
  - symbol: Si # 45
    coordinates: [  0.500003182125685,  0.732455915140032,  0.229231575442119 ]
    mass: 28.085500
  - symbol: Si # 46
    coordinates: [  0.500002973693253,  0.399165640637649,  0.229246682863448 ]
    mass: 28.085500
  - symbol: Si # 47
    coordinates: [  0.000006890760284,  0.010490320267665,  0.299235419777900 ]
    mass: 28.085500
  - symbol: Si # 48
    coordinates: [  0.000006392593347,  0.343714228127240,  0.299162965092966 ]
    mass: 28.085500
  - symbol: Si # 49
    coordinates: [  0.000007574154997,  0.677196366958035,  0.299247672109712 ]
    mass: 28.085500
  - symbol: Si # 50
    coordinates: [  0.500005328920611,  0.843713577591984,  0.299163552424725 ]
    mass: 28.085500
  - symbol: Si # 51
    coordinates: [  0.500006257888216,  0.510488581307175,  0.299234747674597 ]
    mass: 28.085500
  - symbol: Si # 52
    coordinates: [  0.500005482496468,  0.177197002136160,  0.299246788913368 ]
    mass: 28.085500
  - symbol: Si # 53
    coordinates: [  0.999999373673279,  0.899123587100776,  0.368918961407149 ]
    mass: 28.085500
  - symbol: Si # 54
    coordinates: [  0.000002189079006,  0.232773350792026,  0.369222262541120 ]
    mass: 28.085500
  - symbol: Si # 55
    coordinates: [  0.000010169938238,  0.566203272656763,  0.369049075842215 ]
    mass: 28.085500
  - symbol: Si # 56
    coordinates: [  0.499999219310847,  0.066204453390468,  0.369049962899012 ]
    mass: 28.085500
  - symbol: Si # 57
    coordinates: [  0.500008001205139,  0.399122401654807,  0.368917850264780 ]
    mass: 28.085500
  - symbol: Si # 58
    coordinates: [  0.500003615852359,  0.732773747736942,  0.369222978455663 ]
    mass: 28.085500
  - symbol: Si # 59
    coordinates: [  0.999988551486483,  0.122075768099671,  0.439005915585232 ]
    mass: 28.085500
  - symbol: Si # 60
    coordinates: [  0.000007668382433,  0.454747105968809,  0.438432214598773 ]
    mass: 28.085500
  - symbol: Si # 61
    coordinates: [  0.000007854560030,  0.788474510822870,  0.439440137718308 ]
    mass: 28.085500
  - symbol: Si # 62
    coordinates: [  0.500014365383166,  0.622075327040124,  0.439005602074209 ]
    mass: 28.085500
  - symbol: Si # 63
    coordinates: [  0.500000644686475,  0.288474614072861,  0.439440171629702 ]
    mass: 28.085500
  - symbol: Si # 64
    coordinates: [  0.499992751248126,  0.954748479067295,  0.438432734770799 ]
    mass: 28.085500
  - symbol: Si # 65
    coordinates: [  0.999998173370548,  0.899150220844585,  0.508372656452363 ]
    mass: 28.085500
  - symbol: Si # 66
    coordinates: [  0.000000486594685,  0.234429978341460,  0.510409735986555 ]
    mass: 28.085500
  - symbol: Si # 67
    coordinates: [  0.000025099360819,  0.565765930881535,  0.506679999908451 ]
    mass: 28.085500
  - symbol: Si # 68
    coordinates: [  0.500014002448139,  0.734424924710090,  0.510409390431035 ]
    mass: 28.085500
  - symbol: Si # 69
    coordinates: [  0.500007069213766,  0.399150317376476,  0.508372772003188 ]
    mass: 28.085500
  - symbol: Si # 70
    coordinates: [  0.499981626767499,  0.065768195877588,  0.506680646119029 ]
    mass: 28.085500
  - symbol: C # 71
    coordinates: [  0.999997909184132,  0.121322035447462,  0.212689305369488 ]
    mass: 12.010700
  - symbol: C # 72
    coordinates: [  0.000002536318294,  0.788023192850027,  0.212680688230180 ]
    mass: 12.010700
  - symbol: C # 73
    coordinates: [  0.000000860253555,  0.454706697233096,  0.212690778946077 ]
    mass: 12.010700
  - symbol: C # 74
    coordinates: [  0.499999566430929,  0.954704644430287,  0.212691874851339 ]
    mass: 12.010700
  - symbol: C # 75
    coordinates: [  0.500001395679185,  0.621322974805508,  0.212689661737689 ]
    mass: 12.010700
  - symbol: C # 76
    coordinates: [  0.500002569720416,  0.288023604241425,  0.212679408021658 ]
    mass: 12.010700
  - symbol: C # 77
    coordinates: [  0.000003099403030,  0.899346318055187,  0.281612493951621 ]
    mass: 12.010700
  - symbol: C # 78
    coordinates: [  0.000006064341175,  0.232612603892039,  0.281589869566296 ]
    mass: 12.010700
  - symbol: C # 79
    coordinates: [  0.999999126719960,  0.566028995281768,  0.281656552366935 ]
    mass: 12.010700
  - symbol: C # 80
    coordinates: [  0.500001807631568,  0.066030091338524,  0.281657005585705 ]
    mass: 12.010700
  - symbol: C # 81
    coordinates: [  0.500006543031917,  0.399346761063220,  0.281611299368915 ]
    mass: 12.010700
  - symbol: C # 82
    coordinates: [  0.500006244819131,  0.732611861115463,  0.281590545258013 ]
    mass: 12.010700
  - symbol: C # 83
    coordinates: [  0.000001487011837,  0.010488471003745,  0.351749645739737 ]
    mass: 12.010700
  - symbol: C # 84
    coordinates: [  0.000004078123518,  0.343661957517316,  0.351597915135167 ]
    mass: 12.010700
  - symbol: C # 85
    coordinates: [  0.000005429198739,  0.677255390087755,  0.351761677042895 ]
    mass: 12.010700
  - symbol: C # 86
    coordinates: [  0.500001704987494,  0.843661861574942,  0.351598455537995 ]
    mass: 12.010700
  - symbol: C # 87
    coordinates: [  0.500011420959097,  0.510487394967159,  0.351749143836219 ]
    mass: 12.010700
  - symbol: C # 88
    coordinates: [  0.500000603279617,  0.177255688566459,  0.351760777866206 ]
    mass: 12.010700
  - symbol: C # 89
    coordinates: [  0.000014056996187,  0.566413461086644,  0.421442752315444 ]
    mass: 12.010700
  - symbol: C # 90
    coordinates: [  0.000004970903752,  0.232968165475021,  0.421638982987940 ]
    mass: 12.010700
  - symbol: C # 91
    coordinates: [  0.999993526804357,  0.899190518709418,  0.421077798556781 ]
    mass: 12.010700
  - symbol: C # 92
    coordinates: [  0.499988802514817,  0.066414228142234,  0.421443168857936 ]
    mass: 12.010700
  - symbol: C # 93
    coordinates: [  0.500008635276043,  0.399190364289281,  0.421076965735439 ]
    mass: 12.010700
  - symbol: C # 94
    coordinates: [  0.500002089171125,  0.732968631398453,  0.421639277462864 ]
    mass: 12.010700
  - symbol: C # 95
    coordinates: [  0.499994118928696,  0.954921669062403,  0.490533093155453 ]
    mass: 12.010700
  - symbol: C # 96
    coordinates: [  0.500002958605918,  0.288389322821516,  0.491929991182996 ]
    mass: 12.010700
  - symbol: C # 97
    coordinates: [  0.500024432486375,  0.622452265502840,  0.492111599366207 ]
    mass: 12.010700
  - symbol: C # 98
    coordinates: [  0.000011119817304,  0.788388646082808,  0.491930089512897 ]
    mass: 12.010700
  - symbol: C # 99
    coordinates: [  0.000007893153915,  0.454921479678870,  0.490532058007096 ]
    mass: 12.010700
  - symbol: C # 100
    coordinates: [  0.999982838584640,  0.122455107257289,  0.492113499931921 ]
    mass: 12.010700
  - symbol: H # 101
    coordinates: [  0.500004841476372,  0.954795214676140,  0.181995211250156 ]
    mass: 1.007940
  - symbol: H # 102
    coordinates: [  0.999999399836596,  0.121247828049782,  0.181992902169737 ]
    mass: 1.007940
  - symbol: H # 103
    coordinates: [  0.499999124665386,  0.288071843303157,  0.181982842084078 ]
    mass: 1.007940
  - symbol: H # 104
    coordinates: [  0.000003794094040,  0.454797266583759,  0.181994135558601 ]
    mass: 1.007940
  - symbol: H # 105
    coordinates: [  0.500003656152434,  0.621251021683154,  0.181992974974717 ]
    mass: 1.007940
  - symbol: H # 106
    coordinates: [  0.000005166979080,  0.788069246637106,  0.181983928801668 ]
    mass: 1.007940
  reciprocal_lattice: # without 2pi
  - [     0.325414959343266,     0.000000000000000,     0.000000000000000 ] # a*
  - [     0.000000000000000,     0.062626124112686,     0.000000000000000 ] # b*
  - [     0.000000000000000,     0.000000000000000,     0.027777777777778 ] # c*

unit_cell:
  lattice:
  - [     3.072999477400000,     0.000000000000000,     0.000000000000000 ] # a
  - [     0.000000000000000,    15.967777252199999,     0.000000000000000 ] # b
  - [     0.000000000000000,     0.000000000000000,    36.000000000000000 ] # c
  points:
  - symbol: Ga # 1
    coordinates: [  0.499994330659996,  0.081647188253033,  0.654663301873021 ]
    mass: 69.723000
    reduced_to: 1
  - symbol: Ga # 2
    coordinates: [ -0.000002463095516,  0.240923834145929,  0.604545430893267 ]
    mass: 69.723000
    reduced_to: 2
  - symbol: Ga # 3
    coordinates: [ -0.000013855487807,  0.124469612179525,  0.776225964816744 ]
    mass: 69.723000
    reduced_to: 3
  - symbol: Ga # 4
    coordinates: [ -0.000006355591067,  0.236329809439518,  0.700139777230194 ]
    mass: 69.723000
    reduced_to: 4
  - symbol: Ga # 5
    coordinates: [  0.499976859337968,  0.395276842641655,  0.653577462443066 ]
    mass: 69.723000
    reduced_to: 5
  - symbol: Ga # 6
    coordinates: [  0.500027209030189,  0.505754772601211,  0.575472601886626 ]
    mass: 69.723000
    reduced_to: 6
  - symbol: Ga # 7
    coordinates: [  0.499978524821691,  0.302180764979489,  0.787661794624773 ]
    mass: 69.723000
    reduced_to: 7
  - symbol: Ga # 8
    coordinates: [ -0.000003640135825,  0.458584705177303,  0.734768899041878 ]
    mass: 69.723000
    reduced_to: 8
  - symbol: Ga # 9
    coordinates: [ -0.000002495696856,  0.581646767143805,  0.654662729680493 ]
    mass: 69.723000
    reduced_to: 9
  - symbol: Ga # 10
    coordinates: [  0.500003036431896,  0.740922703168487,  0.604543965923760 ]
    mass: 69.723000
    reduced_to: 10
  - symbol: Ga # 11
    coordinates: [  0.499992828889261,  0.624474753725286,  0.776227644227295 ]
    mass: 69.723000
    reduced_to: 11
  - symbol: Ga # 12
    coordinates: [  0.499995803274090,  0.736331005722774,  0.700137718331745 ]
    mass: 69.723000
    reduced_to: 12
  - symbol: Ga # 13
    coordinates: [ -0.000005032635088,  0.895277668788889,  0.653575283989061 ]
    mass: 69.723000
    reduced_to: 13
  - symbol: Ga # 14
    coordinates: [ -0.000024142557970,  0.005753531284048,  0.575473165113051 ]
    mass: 69.723000
    reduced_to: 14
  - symbol: Ga # 15
    coordinates: [ -0.000075169333828,  0.802174239717995,  0.787659707396621 ]
    mass: 69.723000
    reduced_to: 15
  - symbol: Ga # 16
    coordinates: [  0.499999468888627,  0.958582590759366,  0.734768397514623 ]
    mass: 69.723000
    reduced_to: 16
  - symbol: O # 17
    coordinates: [  0.000000820988187,  0.016913399871748,  0.626250945932611 ]
    mass: 15.999400
    reduced_to: 17
  - symbol: O # 18
    coordinates: [  0.000043904924718,  0.231726694488909,  0.554928041922873 ]
    mass: 15.999400
    reduced_to: 18
  - symbol: O # 19
    coordinates: [  0.500003412706953,  0.182258644888178,  0.621103922232840 ]
    mass: 15.999400
    reduced_to: 19
  - symbol: O # 20
    coordinates: [ -0.000004213961051,  0.124797664875819,  0.682641139850360 ]
    mass: 15.999400
    reduced_to: 20
  - symbol: O # 21
    coordinates: [  0.499986862534889,  0.066227031574445,  0.756635457905149 ]
    mass: 15.999400
    reduced_to: 21
  - symbol: O # 22
    coordinates: [  0.500007240931972,  0.403517122194733,  0.554111020776345 ]
    mass: 15.999400
    reduced_to: 22
  - symbol: O # 23
    coordinates: [ -0.000024079712623,  0.350437531581420,  0.625872876786202 ]
    mass: 15.999400
    reduced_to: 23
  - symbol: O # 24
    coordinates: [  0.499995215283831,  0.295704374148326,  0.687272651781310 ]
    mass: 15.999400
    reduced_to: 24
  - symbol: O # 25
    coordinates: [ -0.000051973871350,  0.233187566755799,  0.752254810820583 ]
    mass: 15.999400
    reduced_to: 25
  - symbol: O # 26
    coordinates: [  0.000028977906351,  0.560540324886174,  0.554708879940442 ]
    mass: 15.999400
    reduced_to: 26
  - symbol: O # 27
    coordinates: [  0.500006053312598,  0.516912524913356,  0.626251100559723 ]
    mass: 15.999400
    reduced_to: 27
  - symbol: O # 28
    coordinates: [ -0.000006127421890,  0.460217782519467,  0.681822164249344 ]
    mass: 15.999400
    reduced_to: 28
  - symbol: O # 29
    coordinates: [  0.499997409250963,  0.406547193760845,  0.752212324516618 ]
    mass: 15.999400
    reduced_to: 29
  - symbol: O # 30
    coordinates: [  0.500015133940150,  0.731694772432519,  0.554927295216220 ]
    mass: 15.999400
    reduced_to: 30
  - symbol: O # 31
    coordinates: [  0.000000604989650,  0.682258816799231,  0.621102310128179 ]
    mass: 15.999400
    reduced_to: 31
  - symbol: O # 32
    coordinates: [  0.500000256717162,  0.624796944638521,  0.682641102942575 ]
    mass: 15.999400
    reduced_to: 32
  - symbol: O # 33
    coordinates: [ -0.000007197596628,  0.566221065234300,  0.756635426179905 ]
    mass: 15.999400
    reduced_to: 33
  - symbol: O # 34
    coordinates: [  0.000001805717509,  0.903513877806191,  0.554111544803123 ]
    mass: 15.999400
    reduced_to: 34
  - symbol: O # 35
    coordinates: [  0.499994806086684,  0.850441339774869,  0.625868121333596 ]
    mass: 15.999400
    reduced_to: 35
  - symbol: O # 36
    coordinates: [ -0.000001537299957,  0.795705043416720,  0.687269336373797 ]
    mass: 15.999400
    reduced_to: 36
  - symbol: O # 37
    coordinates: [  0.499959847658941,  0.733193143674799,  0.752251182187772 ]
    mass: 15.999400
    reduced_to: 37
  - symbol: O # 38
    coordinates: [  0.499976511566536,  0.060543233246061,  0.554710481908924 ]
    mass: 15.999400
    reduced_to: 38
  - symbol: O # 39
    coordinates: [  0.499995982805991,  0.960216213433779,  0.681821774164836 ]
    mass: 15.999400
    reduced_to: 39
  - symbol: O # 40
    coordinates: [  0.000000303993613,  0.906548606767431,  0.752212659184229 ]
    mass: 15.999400
    reduced_to: 40
  - symbol: Si # 41
    coordinates: [  0.000002056031735,  0.899165167149807,  0.229247968593349 ]
    mass: 28.085500
    reduced_to: 41
  - symbol: Si # 42
    coordinates: [  0.000001766841040,  0.565817251267699,  0.229276567978046 ]
    mass: 28.085500
    reduced_to: 42
  - symbol: Si # 43
    coordinates: [  0.000002612419793,  0.232455910261574,  0.229230743910346 ]
    mass: 28.085500
    reduced_to: 43
  - symbol: Si # 44
    coordinates: [  0.499998826793763,  0.065816311428480,  0.229277103468471 ]
    mass: 28.085500
    reduced_to: 44
  - symbol: Si # 45
    coordinates: [  0.500003182125685,  0.732455915140032,  0.229231575442119 ]
    mass: 28.085500
    reduced_to: 45
  - symbol: Si # 46
    coordinates: [  0.500002973693253,  0.399165640637649,  0.229246682863448 ]
    mass: 28.085500
    reduced_to: 46
  - symbol: Si # 47
    coordinates: [  0.000006890760284,  0.010490320267665,  0.299235419777900 ]
    mass: 28.085500
    reduced_to: 47
  - symbol: Si # 48
    coordinates: [  0.000006392593347,  0.343714228127240,  0.299162965092966 ]
    mass: 28.085500
    reduced_to: 48
  - symbol: Si # 49
    coordinates: [  0.000007574154997,  0.677196366958035,  0.299247672109712 ]
    mass: 28.085500
    reduced_to: 49
  - symbol: Si # 50
    coordinates: [  0.500005328920611,  0.843713577591984,  0.299163552424725 ]
    mass: 28.085500
    reduced_to: 50
  - symbol: Si # 51
    coordinates: [  0.500006257888216,  0.510488581307175,  0.299234747674597 ]
    mass: 28.085500
    reduced_to: 51
  - symbol: Si # 52
    coordinates: [  0.500005482496468,  0.177197002136160,  0.299246788913368 ]
    mass: 28.085500
    reduced_to: 52
  - symbol: Si # 53
    coordinates: [ -0.000000626326721,  0.899123587100776,  0.368918961407149 ]
    mass: 28.085500
    reduced_to: 53
  - symbol: Si # 54
    coordinates: [  0.000002189079006,  0.232773350792026,  0.369222262541120 ]
    mass: 28.085500
    reduced_to: 54
  - symbol: Si # 55
    coordinates: [  0.000010169938238,  0.566203272656763,  0.369049075842215 ]
    mass: 28.085500
    reduced_to: 55
  - symbol: Si # 56
    coordinates: [  0.499999219310847,  0.066204453390468,  0.369049962899012 ]
    mass: 28.085500
    reduced_to: 56
  - symbol: Si # 57
    coordinates: [  0.500008001205139,  0.399122401654807,  0.368917850264780 ]
    mass: 28.085500
    reduced_to: 57
  - symbol: Si # 58
    coordinates: [  0.500003615852359,  0.732773747736942,  0.369222978455663 ]
    mass: 28.085500
    reduced_to: 58
  - symbol: Si # 59
    coordinates: [ -0.000011448513516,  0.122075768099671,  0.439005915585232 ]
    mass: 28.085500
    reduced_to: 59
  - symbol: Si # 60
    coordinates: [  0.000007668382433,  0.454747105968809,  0.438432214598773 ]
    mass: 28.085500
    reduced_to: 60
  - symbol: Si # 61
    coordinates: [  0.000007854560030,  0.788474510822870,  0.439440137718308 ]
    mass: 28.085500
    reduced_to: 61
  - symbol: Si # 62
    coordinates: [  0.500014365383166,  0.622075327040124,  0.439005602074209 ]
    mass: 28.085500
    reduced_to: 62
  - symbol: Si # 63
    coordinates: [  0.500000644686475,  0.288474614072861,  0.439440171629702 ]
    mass: 28.085500
    reduced_to: 63
  - symbol: Si # 64
    coordinates: [  0.499992751248126,  0.954748479067295,  0.438432734770799 ]
    mass: 28.085500
    reduced_to: 64
  - symbol: Si # 65
    coordinates: [ -0.000001826629452,  0.899150220844585,  0.508372656452363 ]
    mass: 28.085500
    reduced_to: 65
  - symbol: Si # 66
    coordinates: [  0.000000486594685,  0.234429978341460,  0.510409735986555 ]
    mass: 28.085500
    reduced_to: 66
  - symbol: Si # 67
    coordinates: [  0.000025099360819,  0.565765930881535,  0.506679999908451 ]
    mass: 28.085500
    reduced_to: 67
  - symbol: Si # 68
    coordinates: [  0.500014002448139,  0.734424924710090,  0.510409390431035 ]
    mass: 28.085500
    reduced_to: 68
  - symbol: Si # 69
    coordinates: [  0.500007069213766,  0.399150317376476,  0.508372772003188 ]
    mass: 28.085500
    reduced_to: 69
  - symbol: Si # 70
    coordinates: [  0.499981626767499,  0.065768195877588,  0.506680646119029 ]
    mass: 28.085500
    reduced_to: 70
  - symbol: C # 71
    coordinates: [ -0.000002090815868,  0.121322035447462,  0.212689305369488 ]
    mass: 12.010700
    reduced_to: 71
  - symbol: C # 72
    coordinates: [  0.000002536318294,  0.788023192850027,  0.212680688230180 ]
    mass: 12.010700
    reduced_to: 72
  - symbol: C # 73
    coordinates: [  0.000000860253555,  0.454706697233096,  0.212690778946077 ]
    mass: 12.010700
    reduced_to: 73
  - symbol: C # 74
    coordinates: [  0.499999566430929,  0.954704644430287,  0.212691874851339 ]
    mass: 12.010700
    reduced_to: 74
  - symbol: C # 75
    coordinates: [  0.500001395679185,  0.621322974805508,  0.212689661737689 ]
    mass: 12.010700
    reduced_to: 75
  - symbol: C # 76
    coordinates: [  0.500002569720416,  0.288023604241425,  0.212679408021658 ]
    mass: 12.010700
    reduced_to: 76
  - symbol: C # 77
    coordinates: [  0.000003099403030,  0.899346318055187,  0.281612493951621 ]
    mass: 12.010700
    reduced_to: 77
  - symbol: C # 78
    coordinates: [  0.000006064341175,  0.232612603892039,  0.281589869566296 ]
    mass: 12.010700
    reduced_to: 78
  - symbol: C # 79
    coordinates: [ -0.000000873280040,  0.566028995281768,  0.281656552366935 ]
    mass: 12.010700
    reduced_to: 79
  - symbol: C # 80
    coordinates: [  0.500001807631568,  0.066030091338524,  0.281657005585705 ]
    mass: 12.010700
    reduced_to: 80
  - symbol: C # 81
    coordinates: [  0.500006543031917,  0.399346761063220,  0.281611299368915 ]
    mass: 12.010700
    reduced_to: 81
  - symbol: C # 82
    coordinates: [  0.500006244819131,  0.732611861115463,  0.281590545258013 ]
    mass: 12.010700
    reduced_to: 82
  - symbol: C # 83
    coordinates: [  0.000001487011837,  0.010488471003745,  0.351749645739737 ]
    mass: 12.010700
    reduced_to: 83
  - symbol: C # 84
    coordinates: [  0.000004078123518,  0.343661957517316,  0.351597915135167 ]
    mass: 12.010700
    reduced_to: 84
  - symbol: C # 85
    coordinates: [  0.000005429198739,  0.677255390087755,  0.351761677042895 ]
    mass: 12.010700
    reduced_to: 85
  - symbol: C # 86
    coordinates: [  0.500001704987494,  0.843661861574942,  0.351598455537995 ]
    mass: 12.010700
    reduced_to: 86
  - symbol: C # 87
    coordinates: [  0.500011420959097,  0.510487394967159,  0.351749143836219 ]
    mass: 12.010700
    reduced_to: 87
  - symbol: C # 88
    coordinates: [  0.500000603279617,  0.177255688566459,  0.351760777866206 ]
    mass: 12.010700
    reduced_to: 88
  - symbol: C # 89
    coordinates: [  0.000014056996187,  0.566413461086644,  0.421442752315444 ]
    mass: 12.010700
    reduced_to: 89
  - symbol: C # 90
    coordinates: [  0.000004970903752,  0.232968165475021,  0.421638982987940 ]
    mass: 12.010700
    reduced_to: 90
  - symbol: C # 91
    coordinates: [ -0.000006473195643,  0.899190518709418,  0.421077798556781 ]
    mass: 12.010700
    reduced_to: 91
  - symbol: C # 92
    coordinates: [  0.499988802514817,  0.066414228142234,  0.421443168857936 ]
    mass: 12.010700
    reduced_to: 92
  - symbol: C # 93
    coordinates: [  0.500008635276043,  0.399190364289281,  0.421076965735439 ]
    mass: 12.010700
    reduced_to: 93
  - symbol: C # 94
    coordinates: [  0.500002089171125,  0.732968631398453,  0.421639277462864 ]
    mass: 12.010700
    reduced_to: 94
  - symbol: C # 95
    coordinates: [  0.499994118928696,  0.954921669062403,  0.490533093155453 ]
    mass: 12.010700
    reduced_to: 95
  - symbol: C # 96
    coordinates: [  0.500002958605918,  0.288389322821516,  0.491929991182996 ]
    mass: 12.010700
    reduced_to: 96
  - symbol: C # 97
    coordinates: [  0.500024432486375,  0.622452265502840,  0.492111599366207 ]
    mass: 12.010700
    reduced_to: 97
  - symbol: C # 98
    coordinates: [  0.000011119817304,  0.788388646082808,  0.491930089512897 ]
    mass: 12.010700
    reduced_to: 98
  - symbol: C # 99
    coordinates: [  0.000007893153915,  0.454921479678870,  0.490532058007096 ]
    mass: 12.010700
    reduced_to: 99
  - symbol: C # 100
    coordinates: [ -0.000017161415360,  0.122455107257289,  0.492113499931921 ]
    mass: 12.010700
    reduced_to: 100
  - symbol: H # 101
    coordinates: [  0.500004841476372,  0.954795214676140,  0.181995211250156 ]
    mass: 1.007940
    reduced_to: 101
  - symbol: H # 102
    coordinates: [ -0.000000600163404,  0.121247828049782,  0.181992902169737 ]
    mass: 1.007940
    reduced_to: 102
  - symbol: H # 103
    coordinates: [  0.499999124665386,  0.288071843303157,  0.181982842084078 ]
    mass: 1.007940
    reduced_to: 103
  - symbol: H # 104
    coordinates: [  0.000003794094040,  0.454797266583759,  0.181994135558601 ]
    mass: 1.007940
    reduced_to: 104
  - symbol: H # 105
    coordinates: [  0.500003656152434,  0.621251021683154,  0.181992974974717 ]
    mass: 1.007940
    reduced_to: 105
  - symbol: H # 106
    coordinates: [  0.000005166979080,  0.788069246637106,  0.181983928801668 ]
    mass: 1.007940
    reduced_to: 106

supercell:
  lattice:
  - [     3.072999477400000,     0.000000000000000,     0.000000000000000 ] # a
  - [     0.000000000000000,    15.967777252199999,     0.000000000000000 ] # b
  - [     0.000000000000000,     0.000000000000000,    36.000000000000000 ] # c
  points:
  - symbol: Ga # 1
    coordinates: [  0.499994330659996,  0.081647188253033,  0.654663301873021 ]
    mass: 69.723000
    reduced_to: 1
  - symbol: Ga # 2
    coordinates: [  0.999997536904484,  0.240923834145929,  0.604545430893267 ]
    mass: 69.723000
    reduced_to: 2
  - symbol: Ga # 3
    coordinates: [  0.999986144512193,  0.124469612179525,  0.776225964816744 ]
    mass: 69.723000
    reduced_to: 3
  - symbol: Ga # 4
    coordinates: [  0.999993644408933,  0.236329809439518,  0.700139777230194 ]
    mass: 69.723000
    reduced_to: 4
  - symbol: Ga # 5
    coordinates: [  0.499976859337968,  0.395276842641655,  0.653577462443066 ]
    mass: 69.723000
    reduced_to: 5
  - symbol: Ga # 6
    coordinates: [  0.500027209030189,  0.505754772601211,  0.575472601886626 ]
    mass: 69.723000
    reduced_to: 6
  - symbol: Ga # 7
    coordinates: [  0.499978524821691,  0.302180764979489,  0.787661794624773 ]
    mass: 69.723000
    reduced_to: 7
  - symbol: Ga # 8
    coordinates: [  0.999996359864175,  0.458584705177303,  0.734768899041878 ]
    mass: 69.723000
    reduced_to: 8
  - symbol: Ga # 9