nqpoint: 505    
npath: 5      
segment_nqpoint:
- 101
- 101
- 101
- 101
- 101
labels:
- [ 'L', 'M' ]
- [ 'M', 'A' ]
- [ 'A', 'Γ' ]
- [ 'Γ', 'Z' ]
- [ 'Z', 'V' ]
reciprocal_lattice:
- [   0.08016305,  -0.00000000,   0.01969499 ] # a*
- [   0.00000000,   0.32387389,  -0.00000000 ] # b*
- [  -0.00036698,   0.00000000,   0.17493770 ] # c*
natom: 20     
lattice:
- [    12.468149908951199,     0.000000000000000,     0.026155600398117 ] # a
- [     0.000000000000000,     3.087621580043961,     0.000000000000000 ] # b
- [    -1.403700347226860,     0.000000000000000,     5.713375931458172 ] # c
points:
- symbol: Ga # 1
  coordinates: [  0.089881625907521,  0.000000000000000,  0.794706011022470 ]
  mass: 69.723000
- symbol: Ga # 2
  coordinates: [  0.910118374092478,  0.000000000000000,  0.205293988977530 ]
  mass: 69.723000
- symbol: Ga # 3
  coordinates: [  0.589881625907529,  0.500000000000000,  0.794706011022470 ]
  mass: 69.723000
- symbol: Ga # 4
  coordinates: [  0.410118374092478,  0.500000000000000,  0.205293988977530 ]
  mass: 69.723000
- symbol: Ga # 5
  coordinates: [  0.341534015918140,  0.000000000000000,  0.685979022768647 ]
  mass: 69.723000
- symbol: Ga # 6
  coordinates: [  0.658465984081860,  0.000000000000000,  0.314020977231353 ]
  mass: 69.723000
- symbol: Ga # 7
  coordinates: [  0.841534015918140,  0.500000000000000,  0.685979022768647 ]
  mass: 69.723000
- symbol: Ga # 8
  coordinates: [  0.158465984081860,  0.500000000000000,  0.314020977231353 ]
  mass: 69.723000
- symbol: O # 9
  coordinates: [  0.163545531952249,  0.000000000000000,  0.109008204275515 ]
  mass: 15.999400
- symbol: O # 10
  coordinates: [  0.836454468047751,  0.000000000000000,  0.890991795724485 ]
  mass: 15.999400
- symbol: O # 11
  coordinates: [  0.663545531952249,  0.500000000000000,  0.109008204275515 ]
  mass: 15.999400
- symbol: O # 12
  coordinates: [  0.336454468047751,  0.500000000000000,  0.890991795724485 ]
  mass: 15.999400
- symbol: O # 13
  coordinates: [  0.495992631672563,  0.000000000000000,  0.256657504636959 ]
  mass: 15.999400
- symbol: O # 14
  coordinates: [  0.504007368327437,  0.000000000000000,  0.743342495363049 ]
  mass: 15.999400
- symbol: O # 15
  coordinates: [  0.995992631672563,  0.500000000000000,  0.256657504636959 ]
  mass: 15.999400
- symbol: O # 16
  coordinates: [  0.004007368327437,  0.500000000000000,  0.743342495363049 ]
  mass: 15.999400
- symbol: O # 17
  coordinates: [  0.826341287046609,  0.000000000000000,  0.435741526660739 ]
  mass: 15.999400
- symbol: O # 18
  coordinates: [  0.173658712953391,  0.000000000000000,  0.564258473339261 ]
  mass: 15.999400
- symbol: O # 19
  coordinates: [  0.326341287046609,  0.500000000000000,  0.435741526660739 ]
  mass: 15.999400
- symbol: O # 20
  coordinates: [  0.673658712953391,  0.500000000000000,  0.564258473339261 ]
  mass: 15.999400

phonon:
- q-position: [    0.5000000,    0.0000000,    0.5000000 ]
  distance:    0.0000000
  band:
  - # 1
    frequency:    1.9313773750
  - # 2
    frequency:    1.9313773860
  - # 3
    frequency:    2.8737222350
  - # 4
    frequency:    2.8737222674
  - # 5
    frequency:    3.0199859117
  - # 6
    frequency:    3.0199859204
  - # 7
    frequency:    3.0423087210
  - # 8
    frequency:    3.0423087236
  - # 9
    frequency:    3.6613836938
  - # 10
    frequency:    3.6613837017
  - # 11
    frequency:    4.3390659148
  - # 12
    frequency:    4.3390659148
  - # 13
    frequency:    4.5346825723
  - # 14
    frequency:    4.5346825729
  - # 15
    frequency:    5.2661396489
  - # 16
    frequency:    5.2661396639
  - # 17
    frequency:    5.9062356996
  - # 18
    frequency:    5.9062357154
  - # 19
    frequency:    6.3862352106
  - # 20
    frequency:    6.3862352128
  - # 21
    frequency:    7.6109450287
  - # 22
    frequency:    7.6109450299
  - # 23
    frequency:    8.2459799065
  - # 24
    frequency:    8.2459799167
  - # 25
    frequency:    8.3420752578
  - # 26
    frequency:    8.3420752584
  - # 27
    frequency:    8.5646442249
  - # 28
    frequency:    8.5646442295
  - # 29
    frequency:    9.2808646535
  - # 30
    frequency:    9.2808646737
  - # 31
    frequency:    9.6377468177
  - # 32
    frequency:    9.6377468305
  - # 33
    frequency:    9.9179811176
  - # 34
    frequency:    9.9179811235
  - # 35
    frequency:   11.1355983738
  - # 36
    frequency:   11.1355983815
  - # 37
    frequency:   12.2134267232
  - # 38
    frequency:   12.2134267442
  - # 39
    frequency:   12.7789575816
  - # 40
    frequency:   12.7789575826
  - # 41
    frequency:   12.9897326784
  - # 42
    frequency:   12.9897326908
  - # 43
    frequency:   13.3980881767
  - # 44
    frequency:   13.3980881772
  - # 45
    frequency:   16.8076062848
  - # 46
    frequency:   16.8076062887
  - # 47
    frequency:   17.2992608028
  - # 48
    frequency:   17.2992608272
  - # 49
    frequency:   18.2899036864
  - # 50
    frequency:   18.2899036957
  - # 51
    frequency:   18.2991981230
  - # 52
    frequency:   18.2991981240
  - # 53
    frequency:   19.6769353751
  - # 54
    frequency:   19.6769353791
  - # 55
    frequency:   19.7591021720
  - # 56
    frequency:   19.7591021781
  - # 57
    frequency:   20.4576837703
  - # 58
    frequency:   20.4576837824
  - # 59
    frequency:   22.2223296302
  - # 60
    frequency:   22.2223296502

- q-position: [    0.5000000,    0.0000000,    0.4950000 ]
  distance:    0.0008747
  band:
  - # 1
    frequency:    1.9203799192
  - # 2
    frequency:    1.9422683834
  - # 3
    frequency:    2.8516221584
  - # 4
    frequency:    2.8942867534
  - # 5
    frequency:    3.0121361746
  - # 6
    frequency:    3.0290697218
  - # 7
    frequency:    3.0407181016
  - # 8
    frequency:    3.0438927074
  - # 9
    frequency:    3.6554052448
  - # 10
    frequency:    3.6674966936
  - # 11
    frequency:    4.3366164353
  - # 12
    frequency:    4.3415087344
  - # 13
    frequency:    4.5301689630
  - # 14
    frequency:    4.5388070329
  - # 15
    frequency:    5.2502028886
  - # 16
    frequency:    5.2817189541
  - # 17
    frequency:    5.8994232518
  - # 18
    frequency:    5.9114252221
  - # 19
    frequency:    6.3659843545
  - # 20
    frequency:    6.4077340107
  - # 21
    frequency:    7.5992764820
  - # 22
    frequency:    7.6224861526
  - # 23
    frequency:    8.2338899683
  - # 24
    frequency:    8.2571994459
  - # 25
    frequency:    8.3419448032
  - # 26
    frequency:    8.3421595744
  - # 27
    frequency:    8.5603908072
  - # 28
    frequency:    8.5695590610
  - # 29
    frequency:    9.2752777101
  - # 30
    frequency:    9.2843904858
  - # 31
    frequency:    9.6256457138
  - # 32
    frequency:    9.6523087635
  - # 33
    frequency:    9.9175033211
  - # 34
    frequency:    9.9183679727
  - # 35
    frequency:   11.1345878444
  - # 36
    frequency:   11.1363810671
  - # 37
    frequency:   12.2086035924
  - # 38
    frequency:   12.2183944522
  - # 39
    frequency:   12.7776273234
  - # 40
    frequency:   12.7801251162
  - # 41
    frequency:   12.9882757274
  - # 42
    frequency:   12.9913681767
  - # 43
    frequency:   13.3833354824
  - # 44
    frequency:   13.4132096975
  - # 45
    frequency:   16.7982794588
  - # 46
    frequency:   16.8168550891
  - # 47
    frequency:   17.2981065675
  - # 48
    frequency:   17.3003588907
  - # 49
    frequency:   18.2875072714
  - # 50
    frequency:   18.2919136994
  - # 51
    frequency:   18.2971161106
  - # 52
    frequency:   18.3016669872
  - # 53
    frequency:   19.6740261939
  - # 54
    frequency:   19.6798787995
  - # 55
    frequency:   19.7585935635
  - # 56
    frequency:   19.7591203637
  - # 57
    frequency:   20.4528002008
  - # 58
    frequency:   20.4629528098
  - # 59
    frequency:   22.2189877487
  - # 60
    frequency:   22.2254497260

- q-position: [    0.5000000,    0.0000000,    0.4900000 ]
  distance:    0.0017494
  band:
  - # 1
    frequency:    1.9092889850
  - # 2
    frequency:    1.9530396100
  - # 3
    frequency:    2.8286469562
  - # 4
    frequency:    2.9119592292
  - # 5
    frequency:    3.0068747439
  - # 6
    frequency:    3.0387295239
  - # 7
    frequency:    3.0391263508
  - # 8
    frequency:    3.0454652348
  - # 9
    frequency:    3.6495648310
  - # 10
    frequency:    3.6737403407
  - # 11
    frequency:    4.3341608842
  - # 12
    frequency:    4.3439443684
  - # 13
    frequency:    4.5252390218
  - # 14
    frequency:    4.5425655235
  - # 15
    frequency:    5.2339716948
  - # 16
    frequency:    5.2968790149
  - # 17
    frequency:    5.8912484614
  - # 18
    frequency:    5.9147017878
  - # 19
    frequency:    6.3472882375
  - # 20
    frequency:    6.4302051512
  - # 21
    frequency:    7.5875039700
  - # 22
    frequency:    7.6338760320
  - # 23
    frequency:    8.2210814444
  - # 24
    frequency:    8.2673818177
  - # 25
    frequency:    8.3417683262
  - # 26
    frequency:    8.3421976836
  - # 27
    frequency:    8.5569955376
  - # 28
    frequency:    8.5749502185
  - # 29
    frequency:    9.2680918102
  - # 30
    frequency:    9.2854097249
  - # 31
    frequency:    9.6164307416
  - # 32
    frequency:    9.6688942410
  - # 33
    frequency:    9.9169351286
  - # 34
    frequency:    9.9186634001
  - # 35
    frequency:   11.1333379039
  - # 36
    frequency:   11.1369486152
  - # 37
    frequency:   12.2039015344
  - # 38
    frequency:   12.2235291888
  - # 39
    frequency:   12.7761425342
  - # 40
    frequency:   12.7811223437
  - # 41
    frequency:   12.9870052427
  - # 42
    frequency:   12.9931736384
  - # 43
    frequency:   13.3689601872
  - # 44
    frequency:   13.4286917959
  - # 45
    frequency:   16.7888726538
  - # 46
    frequency:   16.8260276784
  - # 47
    frequency:   17.2968970748
  - # 48
    frequency:   17.3013998724
  - # 49
    frequency:   18.2850150918
  - # 50
    frequency:   18.2921028167
  - # 51
    frequency:   18.2968554948
  - # 52
    frequency:   18.3042319824
  - # 53
    frequency:   19.6711907613
  - # 54
    frequency:   19.6828044693
  - # 55
    frequency:   19.7575889986
  - # 56
    frequency:   19.7586675859
  - # 57
    frequency:   20.4483286710
  - # 58
    frequency:   20.4685793753
  - # 59
    frequency:   22.2154224520
  - # 60
    frequency:   22.2283496023

- q-position: [    0.5000000,    0.0000000,    0.4850000 ]
  distance:    0.0026241
  band:
  - # 1
    frequency:    1.8981172491
  - # 2
    frequency:    1.9636773981
  - # 3
    frequency:    2.8051302929
  - # 4
    frequency:    2.9242782464
  - # 5
    frequency:    3.0066610504
  - # 6
    frequency:    3.0375396762
  - # 7
    frequency:    3.0470221470
  - # 8
    frequency:    3.0486343634
  - # 9
    frequency:    3.6438655426
  - # 10
    frequency:    3.6801103703
  - # 11
    frequency:    4.3316999188
  - # 12
    frequency:    4.3463723475
  - # 13
    frequency:    4.5198614405
  - # 14
    frequency:    4.5459773891
  - # 15
    frequency:    5.2175109552
  - # 16
    frequency:    5.3115586178
  - # 17
    frequency:    5.8819371056
  - # 18
    frequency:    5.9157606989
  - # 19
    frequency:    6.3304707830
  - # 20
    frequency:    6.4534091901
  - # 21
    frequency:    7.5756507718
  - # 22
    frequency:    7.6450902802
  - # 23
    frequency:    8.2076874210
  - # 24
    frequency:    8.2763538646
  - # 25
    frequency:    8.3415459925
  - # 26
    frequency:    8.3421895649
  - # 27
    frequency:    8.5546581304
  - # 28
    frequency:    8.5806482489
  - # 29
    frequency:    9.2597393057
  - # 30
    frequency:    9.2835635422
  - # 31
    frequency:    9.6104458713
  - # 32
    frequency:    9.6871000754
  - # 33
    frequency:    9.9162771803
  - # 34
    frequency:    9.9188669982
  - # 35
    frequency:   11.1318382473
  - # 36
    frequency:   11.1373147464
  - # 37
    frequency:   12.1992962036
  - # 38
    frequency:   12.2288521669
  - # 39
    frequency:   12.7745118533
  - # 40
    frequency:   12.7819424670
  - # 41
    frequency:   12.9859283568
  - # 42
    frequency:   12.9951400612
  - # 43
    frequency:   13.3549711396
  - # 44
    frequency:   13.4445265944
  - # 45
    frequency:   16.7793837800
  - # 46
    frequency:   16.8351257331
  - # 47
    frequency:   17.2956332481
  - # 48
    frequency:   17.3023828711
  - # 49
    frequency:   18.2824884366
  - # 50
    frequency:   18.2901730156
  - # 51
    frequency:   18.2987143798
  - # 52
    frequency:   18.3068317469
  - # 53
    frequency:   19.6684599360
  - # 54
    frequency:   19.6856422028
  - # 55
    frequency:   19.7560926290
  - # 56
    frequency:   19.7577833676
  - # 57
    frequency:   20.4442939985
  - # 58
    frequency:   20.4745346497
  - # 59
    frequency:   22.2116321753
  - # 60
    frequency:   22.2310308459

- q-position: [    0.5000000,    0.0000000,    0.4800000 ]
  distance:    0.0034988
  band:
  - # 1
    frequency:    1.8868770593
  - # 2
    frequency:    1.9741677562
  - # 3
    frequency:    2.7812538101
  - # 4
    frequency:    2.9287886615
  - # 5
    frequency:    3.0139484666
  - # 6
    frequency:    3.0359650017
  - # 7
    frequency:    3.0485599197
  - # 8
    frequency:    3.0586055009
  - # 9
    frequency:    3.6383100609
  - # 10
    frequency:    3.6866021348
  - # 11
    frequency:    4.3292342728
  - # 12
    frequency:    4.3487922533
  - # 13
    frequency:    4.5140007203
  - # 14
    frequency:    4.5490583319
  - # 15
    frequency:    5.2008877474
  - # 16
    frequency:    5.3256961891
  - # 17
    frequency:    5.8716804206
  - # 18
    frequency:    5.9143092861
  - # 19
    frequency:    6.3158471534
  - # 20
    frequency:    6.4771421077
  - # 21
    frequency:    7.5637401411
  - # 22
    frequency:    7.6561037086
  - # 23
    frequency:    8.1938215817
  - # 24
    frequency:    8.2839503014
  - # 25
    frequency:    8.3412780153
  - # 26
    frequency:    8.3421352460
  - # 27
    frequency:    8.5535667481
  - # 28
    frequency:    8.5865002455
  - # 29
    frequency:    9.2506009076
  - # 30
    frequency:    9.2786539015
  - # 31
    frequency:    9.6078800165
  - # 32
    frequency:    9.7065785379
  - # 33
    frequency:    9.9155301858
  - # 34
    frequency:    9.9189784445
  - # 35
    frequency:   11.1300799467
  - # 36
    frequency:   11.1374940654
  - # 37
    frequency:   12.1947625260
  - # 38
    frequency:   12.2343832891
  - # 39
    frequency:   12.7727442042
  - # 40
    frequency:   12.7825796435
  - # 41
    frequency:   12.9850512330
  - # 42
    frequency:   12.9972581322
  - # 43
    frequency:   13.3413774008
  - # 44
    frequency:   13.4607066221
  - # 45
    frequency:   16.7698106119
  - # 46
    frequency:   16.8441507907
  - # 47
    frequency:   17.2943160179
  - # 48
    frequency:   17.3033069942
  - # 49
    frequency:   18.2799471552
  - # 50
    frequency:   18.2877356513
  - # 51
    frequency:   18.3010814816
  - # 52
    frequency:   18.3094463582
  - # 53
    frequency:   19.6658584465
  - # 54
    frequency:   19.6882953377
  - # 55
    frequency:   19.7541153284
  - # 56
    frequency:   19.7565360376
  - # 57
    frequency:   20.4407188122
  - # 58
    frequency:   20.4807892925
  - # 59
    frequency:   22.2076153381
  - # 60
    frequency:   22.2334950407

- q-position: [    0.5000000,    0.0000000,    0.4750000 ]
  distance:    0.0043735
  band:
  - # 1
    frequency:    1.8755804538
  - # 2
    frequency:    1.9844963617
  - # 3
    frequency:    2.7571243176
  - # 4
    frequency:    2.9260448697
  - # 5
    frequency:    3.0281810291
  - # 6
    frequency:    3.0344099754
  - # 7
    frequency:    3.0500756340
  - # 8
    frequency:    3.0685392608
  - # 9
    frequency:    3.6329006550
  - # 10
    frequency:    3.6932106226
  - # 11
    frequency:    4.3267647636
  - # 12
    frequency:    4.3512037126
  - # 13
    frequency:    4.5076171970
  - # 14
    frequency:    4.5518206172
  - # 15
    frequency:    5.1841715775
  - # 16
    frequency:    5.3392286185
  - # 17
    frequency:    5.8606384063
  - # 18
    frequency:    5.9101049587
  - # 19
    frequency:    6.3036867735
  - # 20
    frequency:    6.5012316989
  - # 21
    frequency:    7.5517954314
  - # 22
    frequency:    7.6668900749
  - # 23
    frequency:    8.1795793246
  - # 24
    frequency:    8.2900333319
  - # 25
    frequency:    8.3409646554
  - # 26
    frequency:    8.3420348028
  - # 27
    frequency:    8.5538780902
  - # 28
    frequency:    8.5923690588
  - # 29
    frequency:    9.2410011492
  - # 30
    frequency:    9.2706893747
  - # 31
    frequency:    9.6087218991
  - # 32
    frequency:    9.7270413127
  - # 33
    frequency:    9.9146949295
  - # 34
    frequency:    9.9189974964
  - # 35
    frequency:   11.1280555593
  - # 36
    frequency:   11.1375019301
  - # 37
    frequency:   12.1902749100
  - # 38
    frequency:   12.2401410099
  - # 39
    frequency:   12.7708486531
  - # 40
    frequency:   12.7830291423
  - # 41
    frequency:   12.9843789068
  - # 42
    frequency:   12.9995183842
  - # 43
    frequency:   13.3281881760
  - # 44
    frequency:   13.4772248441
  - # 45
    frequency:   16.7601507890
  - # 46
    frequency:   16.8531042488
  - # 47
    frequency:   17.2929463221
  - # 48
    frequency:   17.3041713579
  - # 49
    frequency:   18.2773997483
  - # 50
    frequency:   18.2851821238
  - # 51
    frequency:   18.3035654706
  - # 52
    frequency:   18.3120672423
  - # 53
    frequency:   19.6634065635
  - # 54
    frequency:   19.6906294930
  - # 55
    frequency:   19.7516726525
  - # 56
    frequency:   19.7550343655
  - # 57
    frequency:   20.4376231565
  - # 58
    frequency:   20.4873138174
  - # 59
    frequency:   22.2033703671
  - # 60
    frequency:   22.2357437656

- q-position: [    0.5000000,    0.0000000,    0.4700000 ]
  distance:    0.0052481
  band:
  - # 1
    frequency:    1.8642391721
  - # 2
    frequency:    1.9946485681
  - # 3
    frequency:    2.7328092420
  - # 4
    frequency:    2.9187686742
  - # 5
    frequency:    3.0328829700
  - # 6
    frequency:    3.0466355557
  - # 7
    frequency:    3.0515669446
  - # 8
    frequency:    3.0783715786
  - # 9
    frequency:    3.6276391794
  - # 10
    frequency:    3.6999304703
  - # 11
    frequency:    4.3242923006
  - # 12
    frequency:    4.3536063922
  - # 13
    frequency:    4.5006671825
  - # 14
    frequency:    4.5542732824
  - # 15
    frequency:    5.1674344330
  - # 16
    frequency:    5.3520897504
  - # 17
    frequency:    5.8489442236
  - # 18
    frequency:    5.9029978148
  - # 19
    frequency:    6.2941721329
  - # 20
    frequency:    6.5255329106
  - # 21
    frequency:    7.5398401936
  - # 22
    frequency:    7.6774218136
  - # 23
    frequency:    8.1650397032
  - # 24
    frequency:    8.2945143871
  - # 25
    frequency:    8.3406062216
  - # 26
    frequency:    8.3418883590
  - # 27
    frequency:    8.5556951927
  - # 28
    frequency:    8.5981318319
  - # 29
    frequency:    9.2312128520
  - # 30
    frequency:    9.2598780326
  - # 31
    frequency:    9.6127679741
  - # 32
    frequency:    9.7482543389
  - # 33
    frequency:    9.9137722698
  - # 34
    frequency:    9.9189239923
  - # 35
    frequency:   11.1257592264
  - # 36
    frequency:   11.1373543195
  - # 37
    frequency:   12.1858074458
  - # 38
    frequency:   12.2461422377
  - # 39
    frequency:   12.7688342833
  - # 40
    frequency:   12.7832874803
  - # 41
    frequency:   12.9839151504
  - # 42
    frequency:   13.0019113216
  - # 43
    frequency:   13.3154127358
  - # 44
    frequency:   13.4940746848
  - # 45
    frequency:   16.7504018174
  - # 46
    frequency:   16.8619873647
  - # 47
    frequency:   17.2915251070
  - # 48
    frequency:   17.3049750887
  - # 49
    frequency:   18.2748506391
  - # 50
    frequency:   18.2825888944
  - # 51
    frequency:   18.3060899548
  - # 52
    frequency:   18.3146899026
  - # 53
    frequency:   19.6611211833
  - # 54
    frequency:   19.6924597851
  - # 55
    frequency:   19.7487834186
  - # 56
    frequency:   19.7534407007
  - # 57
    frequency:   20.4350241435
  - # 58
    frequency:   20.4940789164
  - # 59
    frequency:   22.1988956985
  - # 60
    frequency:   22.2377785935

- q-position: [    0.5000000,    0.0000000,    0.4650000 ]
  distance:    0.0061228
  band:
  - # 1
    frequency:    1.8528646650
  - # 2
    frequency:    2.0046094174
  - # 3
    frequency:    2.7083539729
  - # 4
    frequency:    2.9090344087
  - # 5
    frequency:    3.0313930767
  - # 6
    frequency:    3.0530320463
  - # 7
    frequency:    3.0672365081
  - # 8
    frequency:    3.0880606470
  - # 9
    frequency:    3.6225270749
  - # 10
    frequency:    3.7067559742
  - # 11
    frequency:    4.3218178937
  - # 12
    frequency:    4.3559999944
  - # 13
    frequency:    4.4931032545
  - # 14
    frequency:    4.5564223427
  - # 15
    frequency:    5.1507506480
  - # 16
    frequency:    5.3642084294
  - # 17
    frequency:    5.8367086697
  - # 18
    frequency:    5.8929651847
  - # 19
    frequency:    6.2873661107
  - # 20
    frequency:    6.5499231453
  - # 21
    frequency:    7.5278982448
  - # 22
    frequency:    7.6876697586
  - # 23
    frequency:    8.1502676055
  - # 24
    frequency:    8.2973722176
  - # 25
    frequency:    8.3402030698
  - # 26
    frequency:    8.3416960861
  - # 27
    frequency:    8.5590486497
  - # 28
    frequency:    8.6036784831
  - # 29
    frequency:    9.2214648240
  - # 30
    frequency:    9.2465727594
  - # 31
    frequency:    9.6196781609
  - # 32
    frequency:    9.7700292528
  - # 33
    frequency:    9.9127631373
  - # 34
    frequency:    9.9187578519
  - # 35
    frequency:   11.1231867638
  - # 36
    frequency:   11.1370677038
  - # 37
    frequency:   12.1813341150
  - # 38
    frequency:   12.2524022548
  - # 39
    frequency:   12.7667100895
  - # 40
    frequency:   12.7833525279
  - # 41
    frequency:   12.9836623651
  - # 42
    frequency:   13.0044275266
  - # 43
    frequency:   13.3030603298
  - # 44
    frequency:   13.5112500440
  - # 45
    frequency:   16.7405610706
  - # 46
    frequency:   16.8708012560
  - # 47
    frequency:   17.2900533272
  - # 48
    frequency:   17.3057173250
  - # 49
    frequency:   18.2723025006
  - # 50
    frequency:   18.2799793682
  - # 51
    frequency:   18.3086315983
  - # 52
    frequency:   18.3173115927
  - # 53
    frequency:   19.6590165003
  - # 54
    frequency:   19.6935428513
  - # 55
    frequency:   19.7454687408
  - # 56
    frequency:   19.7519792393
  - # 57
    frequency:   20.4329356683
  - # 58
    frequency:   20.5010557365
  - # 59
    frequency:   22.1941897812
  - # 60
    frequency:   22.2396010893

- q-position: [    0.5000000,    0.0000000,    0.4600000 ]
  distance:    0.0069975
  band:
  - # 1
    frequency:    1.8414681069
  - # 2
    frequency:    2.0143636575
  - # 3
    frequency:    2.6837909002
  - # 4
    frequency:    2.8979085929
  - # 5
    frequency:    3.0299500895
  - # 6
    frequency:    3.0544696394
  - # 7
    frequency:    3.0889163175
  - # 8
    frequency:    3.0975778685
  - # 9
    frequency:    3.6175653721
  - # 10
    frequency:    3.7136811019
  - # 11
    frequency:    4.3193426631
  - # 12
    frequency:    4.3583842523
  - # 13
    frequency:    4.4848747284
  - # 14
    frequency:    4.5582709907
  - # 15
    frequency:    5.1341965577
  - # 16
    frequency:    5.3755059447
  - # 17
    frequency:    5.8240242440
  - # 18
    frequency:    5.8801253249
  - # 19
    frequency:    6.2832007660
  - # 20
    frequency:    6.5742980070
  - # 21
    frequency:    7.5159937100
  - # 22
    frequency:    7.6976028677
  - # 23
    frequency:    8.1353158616
  - # 24
    frequency:    8.2986611612
  - # 25
    frequency:    8.3397556029
  - # 26
    frequency:    8.3414582029
  - # 27
    frequency:    8.5638873470
  - # 28
    frequency:    8.6089104835
  - # 29
    frequency:    9.2119496628
  - # 30
    frequency:    9.2311989607
  - # 31
    frequency:    9.6290494909
  - # 32
    frequency:    9.7922145206
  - # 33
    frequency:    9.9116685347
  - # 34
    frequency:    9.9184990772
  - # 35
    frequency:   11.1203357407
  - # 36
    frequency:   11.1366589153
  - # 37
    frequency:   12.1768290064
  - # 38
    frequency:   12.2589346566
  - # 39
    frequency:   12.7644848909
  - # 40
    frequency:   12.7832235774
  - # 41
    frequency:   12.9836215135
  - # 42
    frequency:   13.0070577469
  - # 43
    frequency:   13.2911400916
  - # 44
    frequency:   13.5287453096
  - # 45
    frequency:   16.7306257912
  - # 46
    frequency:   16.8795468993
  - # 47
    frequency:   17.2885319463
  - # 48
    frequency:   17.3063972190
  - # 49
    frequency:   18.2697571545
  - # 50
    frequency:   18.2773632324
  - # 51
    frequency:   18.3111807817
  - # 52
    frequency:   18.3199304175
  - # 53
    frequency:   19.6571043684
  - # 54
    frequency:   19.6935885845
  - # 55
    frequency:   19.7417514231
  - # 56
    frequency:   19.7509244997
  - # 57
    frequency:   20.4313682050
  - # 58
    frequency:   20.5082161098
  - # 59
    frequency:   22.1892510792
  - # 60
    frequency:   22.2412128088

- q-position: [    0.5000000,    0.0000000,    0.4550000 ]
  distance:    0.0078722
  band:
  - # 1
    frequency:    1.8300604071
  - # 2
    frequency:    2.0238957662
  - # 3
    frequency:    2.6591443946
  - # 4
    frequency:    2.8859124584
  - # 5
    frequency:    3.0285644816
  - # 6
    frequency:    3.0558788947
  - # 7
    frequency:    3.1069028617
  - # 8
    frequency:    3.1111528393
  - # 9
    frequency:    3.6127546971
  - # 10
    frequency:    3.7206995038
  - # 11
    frequency:    4.3168678492
  - # 12
    frequency:    4.3607589255
  - # 13
    frequency:    4.4759283393
  - # 14
    frequency:    4.5598197854
  - # 15
    frequency:    5.1178499194
  - # 16
    frequency:    5.3858926670
  - # 17
    frequency:    5.8109686282
  - # 18
    frequency:    5.8647256067
  - # 19
    frequency:    6.2814924622
  - # 20
    frequency:    6.5985676560
  - # 21
    frequency:    7.5041510367
  - # 22
    frequency:    7.7071879661
  - # 23
    frequency:    8.1202271379
  - # 24
    frequency:    8.2985064739
  - # 25
    frequency:    8.3392642705
  - # 26
    frequency:    8.3411749757
  - # 27
    frequency:    8.5700817133
  - # 28
    frequency:    8.6137400934
  - # 29
    frequency:    9.2028303164
  - # 30
    frequency:    9.2141942580
  - # 31
    frequency:    9.6404781696
  - # 32
    frequency:    9.8146875849
  - # 33
    frequency:    9.9104895350
  - # 34
    frequency:    9.9181477529
  - # 35
    frequency:   11.1172055498
  - # 36
    frequency:   11.1361450240
  - # 37
    frequency:   12.1722665374
  - # 38
    frequency:   12.2657513091
  - # 39
    frequency:   12.7621672631
  - # 40
    frequency:   12.7829013700
  - # 41
    frequency:   12.9837920911
  - # 42
    frequency:   13.0097929647
  - # 43
    frequency:   13.2796609365
  - # 44
    frequency:   13.5465553635
  - # 45
    frequency:   16.7205930917
  - # 46
    frequency:   16.8882251313
  - # 47
    frequency:   17.2869619380
  - # 48
    frequency:   17.3070139388
  - # 49
    frequency:   18.2672159679
  - # 50
    frequency:   18.2747454214
  - # 51
    frequency:   18.3137326376
  - # 52
    frequency:   18.3225449365
  - # 53
    frequency:   19.6553943992
  - # 54
    frequency:   19.6923094809
  - # 55
    frequency:   19.7376556613
  - # 56
    frequency:   19.7505520939
  - # 57
    frequency:   20.4303286925
  - # 58
    frequency:   20.5155327362
  - # 59
    frequency:   22.1840780759
  - # 60
    frequency:   22.2426152970

- q-position: [    0.5000000,    0.0000000,    0.4500000 ]
  distance:    0.0087469
  band:
  - # 1
    frequency:    1.8186522217
  - # 2
    frequency:    2.0331899820
  - # 3
    frequency:    2.6344336912
  - # 4
    frequency:    2.8733153011
  - # 5
    frequency:    3.0272473709
  - # 6
    frequency:    3.0572594181
  - # 7
    frequency:    3.1160205602
  - # 8
    frequency:    3.1336759770
  - # 9
    frequency:    3.6080952806
  - # 10
    frequency:    3.7278045228
  - # 11
    frequency:    4.3143948238
  - # 12
    frequency:    4.3631237959
  - # 13
    frequency:    4.4662091571
  - # 14
    frequency:    4.5610668296
  - # 15
    frequency:    5.1017890872
  - # 16
    frequency:    5.3952636144
  - # 17
    frequency:    5.7976075693
  - # 18
    frequency:    5.8471121837
  - # 19
    frequency:    6.2819766033
  - # 20
    frequency:    6.6226537788
  - # 21
    frequency:    7.4923949830
  - # 22
    frequency:    7.7163895276
  - # 23
    frequency:    8.1050355753
  - # 24
    frequency:    8.2970886903
  - # 25
    frequency:    8.3387295684
  - # 26
    frequency:    8.3408467170
  - # 27
    frequency:    8.5774373901
  - # 28
    frequency:    8.6180901041
  - # 29
    frequency:    9.1942450189
  - # 30
    frequency:    9.1959729780
  - # 31
    frequency:    9.6535973581
  - # 32
    frequency:    9.8373484003
  - # 33
    frequency:    9.9092272811
  - # 34
    frequency:    9.9177040472
  - # 35
    frequency:   11.1137974660
  - # 36
    frequency:   11.1355432159
  - # 37
    frequency:   12.1676216792
  - # 38
    frequency:   12.2728623256
  - # 39
    frequency:   12.7597654861
  - # 40
    frequency:   12.7823880779
  - # 41
    frequency:   12.9841721444
  - # 42
    frequency:   13.0126244485
  - # 43
    frequency:   13.2686314531
  - # 44
    frequency:   13.5646755853
  - # 45
    frequency:   16.7104599562
  - # 46
    frequency:   16.8968366482
  - # 47
    frequency:   17.2853442865
  - # 48
    frequency:   17.3075666720
  - # 49
    frequency:   18.2646800471
  - # 50
    frequency:   18.2721288790
  - # 51
    frequency:   18.3162842882
  - # 52
    frequency:   18.3251539703
  - # 53
    frequency:   19.6538937915
  - # 54
    frequency:   19.6895011135
  - # 55
    frequency:   19.7332070551