# epsilon and Z* of atoms 1 5 9 13 17
   4.10490200    0.00000000   -0.00819700   -0.00000000    4.20965300    0.00000000   -0.00819900    0.00000000    4.22944900 
   2.73577800    0.00000000   -0.31179800   -0.00000000    2.90219800    0.00000000   -0.17725000    0.00000000    3.09130800 
   3.26763800    0.00000000    0.36545200    0.00000000    3.46439800   -0.00000000    0.20069000   -0.00000000    3.13775800 
  -1.43337200   -0.00000000   -0.06048800   -0.00000000   -2.11347200   -0.00000000   -0.03719000    0.00000000   -2.53689200 
  -2.29744200    0.00000000   -0.21612800   -0.00000000   -2.28596200    0.00000000   -0.23360000    0.00000000   -1.38231200 
  -2.27260200    0.00000000    0.22296200    0.00000000   -1.96716200   -0.00000000    0.24735000   -0.00000000   -2.30986200 
