120  
20   

1    
  0.0080271772953351   0.0059635678167749   0.0000168393581401
  -0.1267191200   -0.1362876200    0.0129719400
  -0.0031962700    0.0163961800    0.0120059000
  -0.0107408800    0.0266802000    0.0100062900
   0.0041470100   -0.0008168900    0.0102475100
   0.0059274100    0.0006699100    0.0116478800
   0.0064640000    0.0000660300    0.0118868200
  -0.0098933900   -0.0036620900   -0.0073809300
  -0.0077876300    0.0016251200   -0.0121349600
  -0.0077223600    0.0018481000   -0.0083700900
  -0.0040297900   -0.0030662600   -0.0210046400
  -0.0061776600    0.0003584300   -0.0133941400
  -0.0046759500    0.0024972200   -0.0170560400
   0.0101569100   -0.0000731600    0.0124809200
   0.0088743600    0.0005107300    0.0125598700
   0.0103239900   -0.0004322900    0.0124695600
   0.0073901500    0.0001515700    0.0134079500
   0.0072141700    0.0000496000    0.0132695800
   0.0075643900   -0.0002018400    0.0135606300
  -0.0039985500    0.0002721800   -0.0140370700
  -0.0060963700    0.0000714500   -0.0130894100
  -0.0043512800   -0.0003130300   -0.0140138800
  -0.0042752600    0.0006478400   -0.0071481300
  -0.0073189900    0.0006128300   -0.0118295600
  -0.0055820600   -0.0012207000   -0.0099393500
   0.0171361400   -0.0026400500    0.0089120300
   0.0006826500    0.0052237900    0.0087996700
  -0.0033939000   -0.0028813500    0.0092245100
  -0.0010317600   -0.0003393800    0.0109881800
  -0.0016902200    0.0011525100    0.0105737100
  -0.0024629800   -0.0008341100    0.0103071600
   0.0061453400   -0.0004179400   -0.0087056400
   0.0030272200   -0.0001744400   -0.0097648500
   0.0052526300    0.0005830500   -0.0089362500
   0.0043580200   -0.0002683800   -0.0103549900
   0.0033994000    0.0000042700   -0.0102811900
   0.0036547900    0.0002647900   -0.0103778300
  -0.0028236300   -0.0090635900    0.0123806800
   0.0002560700    0.0042073000    0.0118069800
   0.0249528400    0.0052144200    0.0172694900
  -0.0025518000   -0.0007704600    0.0099385700
  -0.0019686800    0.0007539400    0.0102497700
  -0.0019609000    0.0000147100    0.0101499500
   0.0032285000    0.0092495100   -0.0221693500
   0.0006838500    0.0033970900   -0.0109869400
  -0.0028730000   -0.0130347000   -0.0173665900
  -0.0008939600    0.0030840800   -0.0054948300
   0.0010070700    0.0040887400   -0.0119487100
  -0.0039631500   -0.0071586700   -0.0149277400
  -0.0161901200    0.0003937100   -0.0159770100
  -0.0159201900   -0.0009542000   -0.0215540900
  -0.0154993000    0.0002672400   -0.0229310400
  -0.0024202400    0.0109384200   -0.0028307300
  -0.0144751700   -0.0034109800   -0.0235175300
  -0.0128058500   -0.0029305300   -0.0160346000
   0.0103818500    0.0051523000    0.0246938800
   0.0166954300   -0.0011358100    0.0223391700
   0.0124767300   -0.0044459500    0.0248923200
   0.0166474600    0.0005882500    0.0221817600
   0.0166256200   -0.0004010100    0.0228932600
   0.0164615000   -0.0002086800    0.0220499000
  -0.0171251300    0.0005501100   -0.0237603100
  -0.0170517100   -0.0005419900   -0.0235051600
  -0.0172990500   -0.0000136500   -0.0240274300
  -0.0176552800    0.0003277000   -0.0226341800
  -0.0173336400   -0.0004107000   -0.0227081200
  -0.0177779000    0.0000791600   -0.0224958700
   0.0101989800   -0.0038090300    0.0204307000
   0.0165470800   -0.0012331500    0.0225079400
   0.0142658000    0.0044850800    0.0209262400
   0.0158098500   -0.0003273100    0.0229601600
   0.0162998900   -0.0002001300    0.0229555900
   0.0160039000    0.0004984600    0.0230492400
   0.0014904500    0.0001936500   -0.0045040900
   0.0019102500   -0.0004906200   -0.0044982400
   0.0018112200    0.0003261500   -0.0045348400
   0.0016060700    0.0005909900   -0.0056058400
   0.0019445200   -0.0011228600   -0.0054727800
   0.0023084900    0.0005138100   -0.0051089000
  -0.0064839200    0.0005673700    0.0042068100
  -0.0059348900   -0.0009312200    0.0043546100
  -0.0055307100    0.0003308300    0.0042366400
  -0.0042745600    0.0001355600    0.0040077200
  -0.0040851400   -0.0001520300    0.0040767700
  -0.0041336200    0.0000302500    0.0040872200
   0.0078367700   -0.0005097600   -0.0027066000
   0.0048575800   -0.0014534500   -0.0048054700
   0.0082795600    0.0016067400   -0.0074769500
   0.0060494000    0.0008292100   -0.0034338300
   0.0040513600   -0.0015417600   -0.0035538500
   0.0048864700    0.0005667100    0.0000314500
   0.0085063800    0.0149068200    0.0053906300
  -0.0014624700   -0.0071989400    0.0047326600
   0.0543693200    0.0794071700    0.0204388400
  -0.0020945900   -0.0003645200    0.0052633300
  -0.0028516100   -0.0004553300    0.0048477400
  -0.0022672000    0.0008048500    0.0052615900
  -0.0169797400    0.0039259500   -0.0330459900
  -0.0130515200   -0.0010385700   -0.0288341700
  -0.0165114200   -0.0032578300   -0.0326348100
  -0.0145393900    0.0003965700   -0.0273622200
  -0.0138896300   -0.0001273100   -0.0283036900
  -0.0144560900   -0.0002711600   -0.0277536000
   0.0543141300    0.0092373100    0.0014191300
   0.0152321700   -0.0049532900    0.0295998500
   0.0212370800   -0.0003365000    0.0249436600
   0.0147178100    0.0000695500    0.0266321900
   0.0142104600   -0.0004676800    0.0286982600
   0.0142320600    0.0000172800    0.0302646400
  -0.0169925400   -0.0021122100   -0.0264276100
  -0.0135540600   -0.0010808600   -0.0284600000
  -0.0175992700    0.0037322700   -0.0270143200
  -0.0133780600   -0.0001680600   -0.0297355300
  -0.0128845000   -0.0007889400   -0.0284147300
  -0.0139141100    0.0013323700   -0.0296057200
   0.0113075900    0.0010110600    0.0283697800
   0.0117247600   -0.0008632400    0.0285526600
   0.0108146300   -0.0001416000    0.0282153300
   0.0128905600    0.0000932400    0.0284381500
   0.0129522800   -0.0002259400    0.0284515800
   0.0127998300    0.0001320500    0.0284660400

1    
 -0.0080271772953351  -0.0059635678167749  -0.0000168393581401
   0.1422240500    0.1429825300    0.0153067700
   0.0163804200   -0.0164733000    0.0132874100
   0.0240472400   -0.0266733900    0.0152633200
   0.0092507000    0.0008186400    0.0150694000
   0.0073730600   -0.0007916300    0.0136389800
   0.0068362600    0.0000523100    0.0134043700
  -0.0034576300    0.0036814800   -0.0179227400
  -0.0055090400   -0.0017534000   -0.0131410800
  -0.0055801400   -0.0017348000   -0.0169103200
  -0.0093420700    0.0031068000   -0.0042493900
  -0.0071134100   -0.0004875900   -0.0119032200
  -0.0086362300   -0.0024004200   -0.0082382000
   0.0031545300    0.0001940800    0.0128026200
   0.0045216000   -0.0005033700    0.0127510700
   0.0029754600    0.0003053600    0.0128185700
   0.0059076100   -0.0000343100    0.0118824600
   0.0061713800   -0.0000494800    0.0120453100
   0.0057320900    0.0000839400    0.0117280500
  -0.0093010600   -0.0001567100   -0.0112552100
  -0.0072855900   -0.0000694700   -0.0122263000
  -0.0089565500    0.0001950800   -0.0112754100
  -0.0090172400   -0.0005332400   -0.0180649300
  -0.0060715800   -0.0006026900   -0.0134739900
  -0.0077368500    0.0010995400   -0.0153418400
  -0.0210963700    0.0025582400    0.0119730300
  -0.0046739000   -0.0050971400    0.0120626800
  -0.0006192600    0.0028145800    0.0116708400
  -0.0030364100    0.0003342400    0.0099936700
  -0.0023250500   -0.0010754000    0.0103360400
  -0.0015484800    0.0007626800    0.0105996100
  -0.0021024700    0.0004173300   -0.0122890500
   0.0009963100    0.0002587100   -0.0111441300
  -0.0012334000   -0.0006673700   -0.0119741700
  -0.0002982100    0.0002677100   -0.0106219900
   0.0006249800    0.0000778800   -0.0106186400
   0.0003596500   -0.0003447700   -0.0105253800
  -0.0011337800    0.0090629800    0.0085143000
  -0.0042991400   -0.0042120800    0.0091793500
  -0.0290987600   -0.0053016800    0.0035704400
  -0.0014526300    0.0006991900    0.0109752000
  -0.0020864600   -0.0007568300    0.0107401900
  -0.0020487600    0.0000612200    0.0107637000
   0.0007796000   -0.0093673700    0.0012161600
   0.0033693000   -0.0033850400   -0.0100174300
   0.0068881800    0.0131405900   -0.0035303100
   0.0048734600   -0.0032218300   -0.0154473500
   0.0030442200   -0.0040914300   -0.0090332300
   0.0080169600    0.0072843300   -0.0059976800
  -0.0165595000   -0.0003965600   -0.0294689200
  -0.0168191400    0.0010017700   -0.0238689700
  -0.0172431800   -0.0003133700   -0.0224958300
  -0.0306114000   -0.0110346300   -0.0428916500
  -0.0182416200    0.0034702400   -0.0219020100
  -0.0199415900    0.0028878500   -0.0293977600
   0.0224179300   -0.0051813400    0.0207118200
   0.0160246200    0.0011838900    0.0230953300
   0.0202415600    0.0044011800    0.0205615200
   0.0160976700   -0.0005916200    0.0232301000
   0.0161121100    0.0004473700    0.0225268700
   0.0162785100    0.0001659800    0.0233749600
  -0.0156122800   -0.0005949300   -0.0216636700
  -0.0156986400    0.0005405700   -0.0219182900
  -0.0154380000    0.0000594600   -0.0213982700
  -0.0150863600   -0.0003721600   -0.0227966600
  -0.0154198400    0.0004066300   -0.0227086500
  -0.0149611800   -0.0000308900   -0.0229359200
   0.0224491300    0.0037327900    0.0249866500
   0.0162043300    0.0012203200    0.0229113800
   0.0184875300   -0.0044247800    0.0245113900
   0.0169304500    0.0002914400    0.0224678500
   0.0164484500    0.0001981900    0.0224533900
   0.0167377600   -0.0004605900    0.0223823800
   0.0053208800   -0.0001932200   -0.0044085600
   0.0049304400    0.0005249900   -0.0043763500
   0.0050305300   -0.0003607900   -0.0043419600
   0.0051941600   -0.0005815000   -0.0033218300
   0.0048818100    0.0011497500   -0.0034189700
   0.0045219000   -0.0005509800   -0.0037745500
  -0.0003404200   -0.0005584100    0.0047116200
  -0.0009178600    0.0009600500    0.0045281500
  -0.0013061900   -0.0003701400    0.0046445600
  -0.0025321000   -0.0001346400    0.0049074900
  -0.0027498300    0.0001947000    0.0048014100
  -0.0026980700   -0.0000737900    0.0047931100
  -0.0010014900    0.0004789900   -0.0061876700
   0.0019620100    0.0014565700   -0.0041084400
  -0.0014551800   -0.0015738300   -0.0013882300
   0.0007514700   -0.0008615200   -0.0054349800
   0.0027656600    0.0015484600   -0.0053597000
   0.0019395900   -0.0005262900   -0.0089399900
  -0.0150715800   -0.0155205100    0.0035934400
  -0.0053441400    0.0071812700    0.0041838700
  -0.0643242400   -0.0848832500   -0.0127404400
  -0.0047392200    0.0003302200    0.0036165500
  -0.0039555900    0.0004528300    0.0040688200
  -0.0045708900   -0.0007678000    0.0036142000
  -0.0101622600   -0.0039391800   -0.0242445400
  -0.0141252400    0.0010962800   -0.0284999900
  -0.0106667800    0.0031985700   -0.0247099300
  -0.0126189900   -0.0004010200   -0.0299637300
  -0.0132795900    0.0001810800   -0.0290208600
  -0.0127025000    0.0002224300   -0.0295734600
  -0.0260688900   -0.0094881500    0.0544792900
   0.0119511300    0.0049866200    0.0277427100
   0.0059212900    0.0002818000    0.0323814100
   0.0124277500   -0.0000741200    0.0307158500
   0.0129504000    0.0005257800    0.0286264600
   0.0129252200   -0.0000723600    0.0270547500
  -0.0101535500    0.0020836400   -0.0308729000
  -0.0136147500    0.0010759700   -0.0288453900
  -0.0095421400   -0.0036983300   -0.0303088900
  -0.0137581300    0.0001295500   -0.0275982800
  -0.0142719200    0.0007878900   -0.0289113100
  -0.0132253900   -0.0012933500   -0.0277177000
   0.0158550400   -0.0010695200    0.0289649700
   0.0154238000    0.0008627300    0.0287688900
   0.0163450100    0.0002001400    0.0291183900
   0.0142695300   -0.0001434000    0.0288786000
   0.0142026400    0.0002239000    0.0288621200
   0.0143627700   -0.0000796500    0.0288534400

1    
 -0.0023859126524660   0.0000000000000000   0.0097112007916016
   0.0424682300   -0.0000013900   -0.1911902400
   0.0087142200   -0.0002028000    0.0035404500
   0.0087125500    0.0002042900    0.0035415600
   0.0045270700   -0.0000006000    0.0204801300
   0.0057193900    0.0000281600    0.0164933400
   0.0057190000   -0.0000287000    0.0164947800
   0.0005859400    0.0000003100   -0.0049436200
  -0.0034500800   -0.0030971200   -0.0119950800
  -0.0034504000    0.0030966900   -0.0119946200
  -0.0176717100   -0.0000008300   -0.0089866600
  -0.0101388900    0.0032426700   -0.0139581100
  -0.0101388800   -0.0032411100   -0.0139567600
   0.0053833200    0.0000118700    0.0113711800
   0.0059313000    0.0000001100    0.0117775800
   0.0053849800   -0.0000119200    0.0113729300
   0.0074150700    0.0001508800    0.0138483500
   0.0072734400   -0.0000016600    0.0135195700
   0.0074156600   -0.0001484300    0.0138484900
  -0.0090629100   -0.0000281900   -0.0090825800
  -0.0073936700   -0.0000003100   -0.0108659500
  -0.0090643200    0.0000274700   -0.0090836200
  -0.0022217900    0.0020426800   -0.0157923000
  -0.0055070000    0.0000009900   -0.0143805100
  -0.0022204100   -0.0020430300   -0.0157923800
  -0.0206905100   -0.0000003500    0.0004377700
  -0.0037796900   -0.0018327900    0.0072653800
  -0.0037793000    0.0018323200    0.0072642200
   0.0002383500   -0.0000007800    0.0156282400
  -0.0016110600    0.0013251100    0.0135344500
  -0.0016116200   -0.0013243700    0.0135339200
   0.0027924700    0.0000003900   -0.0103059100
   0.0018217400   -0.0000476100   -0.0104959300
   0.0018215400    0.0000478200   -0.0104954200
   0.0016333600    0.0000005000   -0.0105927500
   0.0015573900    0.0001925000   -0.0106344000
   0.0015581000   -0.0001917500   -0.0106347600
  -0.0012811900    0.0008417900    0.0057363200
  -0.0019819400    0.0000003600    0.0085458000
  -0.0012809700   -0.0008418500    0.0057374200
  -0.0024782000   -0.0000346300    0.0133838000
  -0.0023934900    0.0000006100    0.0127967200
  -0.0024768300    0.0000354300    0.0133824900
  -0.0036550600   -0.0138950200    0.0046025900
   0.0016628000   -0.0000001600   -0.0085697600
  -0.0036546700    0.0138946900    0.0046027000
   0.0015012800    0.0182408600    0.0093869200
   0.0018510200    0.0000013900   -0.0077174300
   0.0015012900   -0.0182428900    0.0093852400
  -0.0148421700   -0.0000041600   -0.0321300500
  -0.0159953900    0.0010197700   -0.0249156500
  -0.0159978300   -0.0010157900   -0.0249140200
   0.0075496600    0.0000009700    0.0741293500
  -0.0164890100   -0.0051945200   -0.0207018900
  -0.0164900800    0.0051934200   -0.0207002700
   0.0191316500   -0.0000007000    0.0264321800
   0.0162017800   -0.0002627800    0.0249669500
   0.0162019300    0.0002631400    0.0249641600
   0.0158495400    0.0000004700    0.0198032100
   0.0159114800    0.0005961300    0.0205920000
   0.0159107900   -0.0005963400    0.0205930000
  -0.0166060400    0.0002100200   -0.0234760000
  -0.0164032200   -0.0000008300   -0.0233080600
  -0.0166046700   -0.0002092300   -0.0234780200
  -0.0159174500   -0.0002340300   -0.0220214900
  -0.0161424700    0.0000017000   -0.0220170700
  -0.0159184700    0.0002321800   -0.0220212100
   0.0162530000    0.0014249100    0.0296529000
   0.0162639700   -0.0000006100    0.0247645500
   0.0162535700   -0.0014243600    0.0296546300
   0.0165459800   -0.0002459100    0.0195688400
   0.0164063800    0.0000013900    0.0210386200
   0.0165475300    0.0002440300    0.0195660300
   0.0045172000    0.0000022400   -0.0050987700
   0.0044228700    0.0004709000   -0.0049670400
   0.0044223900   -0.0004731400   -0.0049675700
   0.0024021300   -0.0000015600   -0.0037732100
   0.0031242300   -0.0001107600   -0.0037229400
   0.0031244600    0.0001124600   -0.0037229000
  -0.0022111500   -0.0000011500    0.0053943600
  -0.0025537500    0.0002525900    0.0051790000
  -0.0025519800   -0.0002515000    0.0051791100
  -0.0043107000   -0.0000013400    0.0035661700
  -0.0042417800   -0.0002279700    0.0036766900
  -0.0042426000    0.0002292500    0.0036766300
  -0.0011096900    0.0040004600   -0.0079795600
   0.0022983400    0.0000004500   -0.0048322700
  -0.0011047200   -0.0040009900   -0.0079784300
   0.0101408200   -0.0046654700   -0.0057728800
   0.0048367100   -0.0000023400   -0.0043449800
   0.0101399400    0.0046676500   -0.0057731000
  -0.0033083800   -0.0030386400    0.0129497900
  -0.0036140300   -0.0000023100    0.0059281200
  -0.0033094600    0.0030410000    0.0129494500
  -0.0028877600    0.0000226100    0.0020993300
  -0.0031404300    0.0000011800    0.0032584700
  -0.0028869900   -0.0000240900    0.0020996100
  -0.0168602400   -0.0000004800   -0.0271133100
  -0.0143149300    0.0003223800   -0.0272796800
  -0.0143134500   -0.0003219000   -0.0272781600
  -0.0114501800   -0.0000004200   -0.0306553600
  -0.0119315800   -0.0005445500   -0.0299693400
  -0.0119341600    0.0005450500   -0.0299697400
  -0.0311776000   -0.0000031200    0.0826595800
   0.0131110400    0.0042646400    0.0306422300
   0.0131117100   -0.0042614900    0.0306392500
   0.0150542700   -0.0000000400    0.0184942300
   0.0139608400   -0.0009106700    0.0264631100
   0.0139612800    0.0009106700    0.0264645900
  -0.0074444800    0.0044207500   -0.0308039100
  -0.0123685700    0.0000002000   -0.0289155400
  -0.0074488400   -0.0044210000   -0.0308058800
  -0.0176581600   -0.0030215000   -0.0325004000
  -0.0147373600    0.0000009800   -0.0292335000
  -0.0176556700    0.0030203600   -0.0325007300
   0.0138198600    0.0000480900    0.0296441600
   0.0138367300   -0.0000015600    0.0291875700
   0.0138201300   -0.0000463000    0.0296456100
   0.0136001500   -0.0001219300    0.0279855700
   0.0136492700    0.0000013100    0.0281046300
   0.0135988800    0.0001205500    0.0279856600

1    
  0.0023859126524660  -0.0000000000000000  -0.0097112007916016
  -0.0355073300    0.0000005100    0.2134883700
   0.0045551600   -0.0000097400    0.0217361200
   0.0045548100    0.0000102300    0.0217359900
   0.0088727600   -0.0000001800    0.0048308200
   0.0075902600   -0.0001424600    0.0087934500
   0.0075879800    0.0001427100    0.0087925700
  -0.0140505700    0.0000001700   -0.0204147900
  -0.0098795600    0.0030094200   -0.0132820000
  -0.0098805500   -0.0030097300   -0.0132822300
   0.0041936800    0.0000000400   -0.0163201500
  -0.0031823500   -0.0033303200   -0.0113586000
  -0.0031817500    0.0033310100   -0.0113575400
   0.0079161100    0.0001049000    0.0139135100
   0.0074537800    0.0000010400    0.0135312800
   0.0079169200   -0.0001044000    0.0139150500
   0.0058820400   -0.0000323500    0.0114409500
   0.0061083400   -0.0000002200    0.0117952600
   0.0058831300    0.0000320200    0.0114416000
  -0.0042387800    0.0001460300   -0.0162037800
  -0.0059901300    0.0000002000   -0.0144446900
  -0.0042393100   -0.0001467100   -0.0162042900
  -0.0110809600   -0.0019292200   -0.0095026700
  -0.0078773000   -0.0000000300   -0.0109337200
  -0.0110814900    0.0019301200   -0.0095027000
   0.0166742800    0.0000000100    0.0205611100
  -0.0002294900    0.0019047200    0.0136419600
  -0.0002293100   -0.0019049900    0.0136435500
  -0.0042953800   -0.0000005500    0.0053538000
  -0.0023963800   -0.0012497300    0.0073698400
  -0.0023962100    0.0012496000    0.0073704100
   0.0012661700    0.0000003000   -0.0106784900
   0.0021926500    0.0001255600   -0.0104093100
   0.0021924500   -0.0001259500   -0.0104089100
   0.0024139100   -0.0000008500   -0.0104005800
   0.0024484700   -0.0001152800   -0.0102799000
   0.0024487700    0.0001151400   -0.0102799200
  -0.0026491400   -0.0009313500    0.0151815600
  -0.0020586800   -0.0000002000    0.0124433700
  -0.0026495800    0.0009318500    0.0151819900
  -0.0015386200   -0.0000386200    0.0075184600
  -0.0016635200    0.0000009000    0.0081842500
  -0.0015390700    0.0000382900    0.0075184800
   0.0077767500    0.0138696100   -0.0255829800
   0.0023978900   -0.0000016000   -0.0124089700
   0.0077762100   -0.0138673500   -0.0255817100
   0.0025812600   -0.0182404900   -0.0301314000
   0.0022087100   -0.0000012700   -0.0132675900
   0.0025811900    0.0182411500   -0.0301310300
  -0.0179161600   -0.0000030300   -0.0132994200
  -0.0167452600   -0.0009793800   -0.0205108800
  -0.0167465200    0.0009822400   -0.0205138900
  -0.0383853500    0.0000006600   -0.1140740900
  -0.0162407500    0.0052254400   -0.0247034200
  -0.0162421900   -0.0052260100   -0.0247092400
   0.0136006500   -0.0000032000    0.0190186700
   0.0165209800    0.0003173000    0.0204785800
   0.0165206900   -0.0003138100    0.0204760300
   0.0169025800    0.0000006000    0.0256197300
   0.0168294800   -0.0005601900    0.0248391300
   0.0168304000    0.0005598200    0.0248389300
  -0.0161256300   -0.0002499000   -0.0219501100
  -0.0163407300   -0.0000016900   -0.0221130300
  -0.0161260500    0.0002516100   -0.0219525400
  -0.0168152900    0.0001881900   -0.0233998800
  -0.0166007800   -0.0000007200   -0.0233993400
  -0.0168155100   -0.0001876600   -0.0234017000
   0.0164850100   -0.0014677300    0.0157640900
   0.0164766900   -0.0000026300    0.0206491600
   0.0164835100    0.0014701100    0.0157634900
   0.0161875000    0.0002020900    0.0258595400
   0.0163364900   -0.0000013800    0.0243743600
   0.0161866400   -0.0002005200    0.0258590700
   0.0022946700    0.0000013700   -0.0038189900
   0.0024190900   -0.0004337600   -0.0039124700
   0.0024161400    0.0004318900   -0.0039131200
   0.0044197900    0.0000018700   -0.0051380900
   0.0037167300    0.0001518100   -0.0051548100
   0.0037148600   -0.0001536100   -0.0051557100
  -0.0045990000   -0.0000011400    0.0035198900
  -0.0042826800   -0.0002084000    0.0036998300
  -0.0042782700    0.0002098900    0.0037001900
  -0.0025038900   -0.0000012700    0.0053467500
  -0.0025938600    0.0002719000    0.0052005100
  -0.0025906100   -0.0002711600    0.0052018300
   0.0079698100   -0.0040792700   -0.0008770100
   0.0045173500   -0.0000012400   -0.0040888900
   0.0079748600    0.0040803100   -0.0008759400
  -0.0032670200    0.0045897100   -0.0031163300
   0.0019783500   -0.0000008600   -0.0045645400
  -0.0032675400   -0.0045887700   -0.0031160500
  -0.0031928700    0.0023845000   -0.0039378400
  -0.0031976500    0.0000048200    0.0029872900
  -0.0031928600   -0.0023896200   -0.0039375000
  -0.0039604900   -0.0000606200    0.0067745900
  -0.0036745300    0.0000034200    0.0056553200
  -0.0039585700    0.0000566200    0.0067753200
  -0.0103000900   -0.0000016900   -0.0302354700
  -0.0128512100   -0.0002617800   -0.0300692900
  -0.0128520400    0.0002634800   -0.0300662700
  -0.0157016400   -0.0000003500   -0.0266609800
  -0.0152219500    0.0005914200   -0.0273531600
  -0.0152222800   -0.0005910200   -0.0273524400
   0.0617636700   -0.0000020700   -0.0281516800
   0.0140652800   -0.0042200700    0.0266638000
   0.0140589600    0.0042222000    0.0266655800
   0.0120779000    0.0000004600    0.0388525800
   0.0131962500    0.0009601400    0.0308590000
   0.0131919300   -0.0009608000    0.0308619200
  -0.0197062400   -0.0044587600   -0.0265254000
  -0.0147950600   -0.0000015000   -0.0284065200
  -0.0197097700    0.0044599200   -0.0265277800
  -0.0094987700    0.0029800100   -0.0248150000
  -0.0124257500   -0.0000008700   -0.0280837700
  -0.0094991100   -0.0029790400   -0.0248154700
   0.0133424700   -0.0000978300    0.0276754500
   0.0133228200   -0.0000007100    0.0281286000
   0.0133439000    0.0000985900    0.0276794600
   0.0135728600    0.0000672900    0.0293372600
   0.0135155100   -0.0000007200    0.0292166500
   0.0135718900   -0.0000668100    0.0293396800

25   
  0.0080271772953351   0.0059635678167749   0.0000168393581401
   0.0257443900   -0.0025744800    0.0019041900
   0.0043210700   -0.0016388300    0.0117494400
   0.0102539200    0.0039385200    0.0109225400
   0.0076827700   -0.0003361300    0.0147838300
   0.0058660800   -0.0004216000    0.0119944300
   0.0072789400    0.0007371900    0.0139229500
  -0.0025706800   -0.0004155500   -0.0110143300
  -0.0048362500   -0.0013547900   -0.0124083000
  -0.0042127700    0.0017634100   -0.0121506100
  -0.0043699600   -0.0002674400   -0.0124089100
  -0.0052645800   -0.0000990000   -0.0125794100
  -0.0050102500    0.0003677200   -0.0127049800
   0.0251696900    0.0169431700    0.0172146600
   0.0089742700    0.0042229600    0.0132486500
   0.0144332400   -0.0207406200    0.0156636300
   0.0066534000    0.0000800100    0.0122621700
   0.0067438100    0.0007562200    0.0123722800
   0.0061258700   -0.0008369400    0.0121343300
  -0.0001733900    0.0022896500   -0.0243029500
  -0.0080433000    0.0033937100   -0.0132887700
  -0.0168490000   -0.0060546800   -0.0113085900
  -0.0072772700    0.0001284100   -0.0020247500
  -0.0077188100    0.0040909700   -0.0130549300
  -0.0149179000   -0.0041968000   -0.0263021800
  -0.1185888100   -0.0994627700   -0.0016025000
  -0.0094063100    0.0227441300    0.0118586000
  -0.0098111200    0.0232400000    0.0136027900
  -0.0035936600   -0.0035503000    0.0090505100
  -0.0025329800    0.0017005500    0.0095210300
  -0.0026693100    0.0018092800    0.0094110300
   0.0064738900   -0.0003758300   -0.0133030400
   0.0045149800    0.0019542100   -0.0119466900
   0.0019191000   -0.0016158100   -0.0122183300
   0.0025295800   -0.0006168600   -0.0054202000
   0.0024603300    0.0024114600   -0.0075455500
  -0.0006406200   -0.0018451800   -0.0084421800
   0.0037071100    0.0001322100    0.0113786000
   0.0000870300    0.0001314200    0.0108194300
   0.0040341200   -0.0002404700    0.0114417100
  -0.0008163200   -0.0000420900    0.0119158000
  -0.0016876400    0.0000607800    0.0115861200
  -0.0007769200   -0.0000207300    0.0119065700
  -0.0117131700   -0.0154057300   -0.0023987500
   0.0006425500    0.0045650200   -0.0086039100
   0.0092228900    0.0128793000    0.0093013700
   0.0010136500   -0.0030782800   -0.0122673900
   0.0023176500    0.0018903700   -0.0115062100
   0.0041306500    0.0011822600   -0.0130432200
  -0.0146090900    0.0031029400   -0.0281305700
  -0.0143157500   -0.0016825100   -0.0206549800
  -0.0166413000   -0.0018997800   -0.0246567300
  -0.0182958600    0.0020597700   -0.0178213700
  -0.0151692400   -0.0003256000   -0.0225855000
  -0.0175646300   -0.0017828200   -0.0210086400
   0.0140808300    0.0002852700    0.0224513200
   0.0148384700   -0.0001191000    0.0225830600
   0.0149186700   -0.0001618500    0.0225774500
   0.0155429700    0.0001863800    0.0215065700
   0.0157245300    0.0002198600    0.0217461400
   0.0156965000   -0.0003946800    0.0217368800
  -0.0171993700   -0.0001156200   -0.0217386600
  -0.0167063400   -0.0006705400   -0.0224493600
  -0.0170204000    0.0007640000   -0.0217507700
  -0.0185622100   -0.0026927400   -0.0285490300
  -0.0166231400   -0.0012881900   -0.0238462300
  -0.0179040000    0.0043338900   -0.0284275700
   0.0225537400    0.0171345000    0.0289777200
   0.0178078100   -0.0059450900    0.0227535800
   0.0316270300    0.0268099200    0.0094604000
   0.0166049800    0.0003937400    0.0258090800
   0.0168313600   -0.0010026300    0.0232732300
   0.0178461900    0.0007823100    0.0220022800
   0.0030192500    0.0035159400   -0.0004513200
   0.0021437900   -0.0024503000   -0.0032683500
   0.0068037600   -0.0013437700   -0.0042702200
   0.0065926700    0.0048046100   -0.0060680500
   0.0036413800   -0.0022069800   -0.0056477200
   0.0081201800   -0.0031245100   -0.0016092400
   0.0338132800    0.0094542700    0.0085816500
  -0.0052248800   -0.0069964500    0.0036100400
   0.0022777300    0.0009844500    0.0047938500
  -0.0028182900    0.0006668200    0.0048431300
  -0.0032948000   -0.0004811500    0.0045980700
  -0.0026402200   -0.0001795800    0.0049091700
  -0.0002821100    0.0026720600   -0.0067228700
   0.0024161100   -0.0008412800   -0.0049113700
  -0.0006024700   -0.0016139300   -0.0067403600
   0.0020530300    0.0004944000   -0.0043973700
   0.0025437900   -0.0004347300   -0.0044805800
   0.0017989000   -0.0000612500   -0.0043861200
  -0.0077030200    0.0036690500    0.0051690900
  -0.0045952400   -0.0011477800    0.0044085300
  -0.0085195100   -0.0023161700    0.0049885900
  -0.0040568600    0.0007967800    0.0038865300
  -0.0037469800   -0.0007202900    0.0042341800
  -0.0043556800   -0.0000963300    0.0037229000
  -0.0166677300    0.0002724500   -0.0282329700
  -0.0159579100   -0.0002307900   -0.0283241700
  -0.0160808000   -0.0000124300   -0.0283763700
  -0.0149217000    0.0002090300   -0.0297135400
  -0.0147617800   -0.0003813300   -0.0295473800
  -0.0147552700    0.0001852800   -0.0295264500
   0.0329795400    0.0089581800    0.0282547600
   0.0181151000   -0.0002299200    0.0287856200
   0.0121679000   -0.0059317900    0.0270246300
   0.0138556300    0.0007860100    0.0294444800
   0.0140585100   -0.0002237800    0.0290256100
   0.0134751300   -0.0005476300    0.0290357400
   0.0004920800    0.0048332400   -0.0266151500
  -0.0114045100   -0.0045533600   -0.0286485900
  -0.0008534600    0.0071459700   -0.0306141900
  -0.0115601700    0.0007162900   -0.0299442500
  -0.0129711100   -0.0009925500   -0.0282315100
  -0.0134773000    0.0004500400   -0.0252683600
   0.0077759800   -0.0021896400    0.0314509800
   0.0122905500   -0.0009853100    0.0289707500
   0.0080109100    0.0034894400    0.0316183600
   0.0133667300    0.0000766300    0.0273702700
   0.0135734600   -0.0005842300    0.0283093300
   0.0135847500    0.0004828400    0.0275819500

25   
 -0.0080271772953351  -0.0059635678167749  -0.0000168393581401
  -0.0125132700    0.0026214900    0.0234214700
   0.0089943600    0.0015178300    0.0135444400
   0.0030240400   -0.0038426100    0.0143845900
   0.0056988300    0.0003368600    0.0105279400
   0.0074362600    0.0003053100    0.0132969200
   0.0060173800   -0.0006228800    0.0113677300
  -0.0108102100    0.0004183200   -0.0142982500
  -0.0084617200    0.0012381400   -0.0128824800
  -0.0090888300   -0.0016481200   -0.0131444300
  -0.0090156400    0.0002678300   -0.0129006600
  -0.0080340400   -0.0000171500   -0.0127073400
  -0.0082890200   -0.0002511700   -0.0125818400
  -0.0116371000   -0.0167792200    0.0081410800
   0.0044256800   -0.0041981400    0.0120698300
  -0.0011013500    0.0205920400    0.0096405100
   0.0066431000    0.0000372700    0.0130231100