  20  120
1 1
    16.751826906411328    -0.000000000000000     0.101671502470445
    -0.000000000000001    23.414687195678557    -0.000000000000001
     0.100977807891196     0.000000000000003    20.860642125671571
1 2
     1.692725127343053     0.637611648916116     0.201568468526129
    -0.637681605515235    -3.614575730884765    -0.166658622914343
     0.201776725713417     0.166618499115784     0.986330111480990
1 3
     1.692725127343053    -0.637611648916116     0.201568468526128
     0.637681605515234    -3.614575730884765     0.166658622914343
     0.201776725713417    -0.166618499115784     0.986330111480990
1 4
     0.317267771787760     0.000000000000000     0.301882470290185
     0.000000000000000     0.137126804813003     0.000000000000000
     0.301694739281044    -0.000000000000000    -0.731566563912564
1 5
     0.056386319059269    -0.045049503258793     0.110049153737003
     0.044997811418387    -0.061844689509954     0.019851790679229
     0.110130081235104    -0.019873101581770    -0.369465878494514
1 6
     0.056386319059269     0.045049503258793     0.110049153737003
    -0.044997811418387    -0.061844689509954    -0.019851790679228
     0.110130081235104     0.019873101581770    -0.369465878494514
1 7
     0.402246725130584    -0.000000000000000    -0.654624020322637
    -0.000000000000000     0.615702732460197    -0.000000000000000
    -0.654762432118269    -0.000000000000000    -0.957395581886900
1 8
     0.138305777272228     0.005702757510491    -0.297021294814602
     0.005716795892570    -0.291831174469847     0.315839034260972
    -0.297071604017494     0.315805053063107    -0.139251509094476
1 9
     0.138305777272228    -0.005702757510491    -0.297021294814602
    -0.005716795892570    -0.291831174469847    -0.315839034260972
    -0.297071604017494    -0.315805053063107    -0.139251509094476
1 10
    -0.333083388251502     0.000000000000000     1.043911701606553
    -0.000000000000000     0.517564333102394    -0.000000000000000
     1.043947844061878     0.000000000000000    -0.121103753111221
1 11
    -0.153155392489068     0.126828983105339     0.320612065675884
     0.126791968035155    -0.240781197450446    -0.307153378024399
     0.320557897840925    -0.307240545071409     0.212603459483083
1 12
    -0.153155392489068    -0.126828983105339     0.320612065675884
    -0.126791968035155    -0.240781197450446     0.307153378024399
     0.320557897840925     0.307240545071409     0.212603459483083
1 13
    -0.446990723325659    -0.014653008447818     0.020603523010045
     0.014511028072252     0.042126208289832    -0.001144868342202
     0.020564056079974     0.001175622046404     0.135953393876567
1 14
    -0.271151129802121     0.000000000000000     0.011714088622497
     0.000000000000000    -0.085024605333358     0.000000000000000
     0.011769614399644     0.000000000000000     0.093170639931470
1 15
    -0.446990723325659     0.014653008447818     0.020603523010045
    -0.014511028072252     0.042126208289832     0.001144868342202
     0.020564056079974    -0.001175622046404     0.135953393876567
1 16
    -0.103019383548963    -0.014662275201432    -0.104270663077658
     0.014662363653188     0.004187929234199     0.012873585470773
    -0.104228639936482    -0.012964710607767    -0.149554439814902
1 17
    -0.064794480412980    -0.000000000000000    -0.076032386860404
     0.000000000000000    -0.008307107678167     0.000000000000000
    -0.075906572878689    -0.000000000000000    -0.107459587768993
1 18
    -0.103019383548963     0.014662275201432    -0.104270663077658
    -0.014662363653188     0.004187929234199    -0.012873585470772
    -0.104228639936482     0.012964710607767    -0.149554439814902
1 19
    -0.308931736587982    -0.029185886392837     0.172606414588115
    -0.029229146939469     0.003320998537870     0.001818961456175
     0.172501928121513     0.001798441279991    -0.324228047499586
1 20
    -0.074187964985134     0.000000000000000     0.054120379990583
    -0.000000000000000    -0.011815074828495    -0.000000000000000
     0.054036983370284    -0.000000000000000    -0.170961710735093
1 21
    -0.308931736587982     0.029185886392837     0.172606414588115
     0.029229146939469     0.003320998537870    -0.001818961456175
     0.172501928121513    -0.001798441279991    -0.324228047499586
1 22
    -0.213727243445108    -0.108560783278528    -0.508668372315018
    -0.108458144498772     0.047754969633936    -0.231166567121481
    -0.508690649109485    -0.231205089315794     0.198862039414779
1 23
     0.077915024569599    -0.000000000000000    -0.102748235164731
    -0.000000000000000    -0.101912147002074    -0.000000000000000
    -0.102896807357372     0.000000000000000     0.152220793022870
1 24
    -0.213727243445108     0.108560783278528    -0.508668372315018
     0.108458144498772     0.047754969633935     0.231166567121481
    -0.508690649109485     0.231205089315794     0.198862039414779
1 25
    -2.384248622246395     0.000000000000000     0.188394181687750
     0.000000000000000     0.435837250427315     0.000000000000000
     1.338020531590175     0.000000000000000     1.082375113778926
1 26
    -0.080753338337611    -0.498978761197222     0.177032697217776
    -0.340869352450718    -0.193885612694399     0.034236216686543
     0.162943504339844     0.069835365873007     0.371875953313131
1 27
    -0.080753338337611     0.498978761197223     0.177032697217776
     0.340869352450717    -0.193885612694399    -0.034236216686543
     0.162943504339844    -0.069835365873007     0.371875953313131
1 28
    -0.124312679349352    -0.000000000000000    -0.060805362374424
     0.000000000000000     0.056477935750573     0.000000000000000
    -0.263969847759557    -0.000000000000000    -0.543938530031748
1 29
     0.008790349508647    -0.118777937620390     0.002370631005518
    -0.064949793798014    -0.026457316299176    -0.022223273730066
    -0.038255258217810    -0.161730389259440    -0.316786146997403
1 30
     0.008790349508647     0.118777937620390     0.002370631005518
     0.064949793798014    -0.026457316299176     0.022223273730066
    -0.038255258217810     0.161730389259440    -0.316786146997404
1 31
    -0.513313441598893    -0.000000000000000    -0.223049660207711
     0.000000000000000     0.070031064093081    -0.000000000000000
    -0.204698788301320    -0.000000000000000    -0.073983333455443
1 32
    -0.265156666598875     0.052387700696887    -0.137508629787192
     0.186764036935583    -0.034260950202541     0.069532201651770
    -0.046048439870659     0.021802399360274    -0.029327071465645
1 33
    -0.265156666598875    -0.052387700696887    -0.137508629787192
    -0.186764036935583    -0.034260950202541    -0.069532201651770
    -0.046048439870659    -0.021802399360274    -0.029327071465645
1 34
    -0.289963958196776    -0.000000000000000    -0.016643179981807
     0.000000000000000     0.044947086749985    -0.000000000000000
    -0.031052151334529     0.000000000000000     0.005805237427785
1 35
    -0.189030375366284     0.021298999257127    -0.015135442816181
     0.021829214322644    -0.022467674405095    -0.007960838454198
    -0.000573818254446    -0.010590857958215     0.014542295902926
1 36
    -0.189030375366284    -0.021298999257127    -0.015135442816181
    -0.021829214322644    -0.022467674405095     0.007960838454198
    -0.000573818254446     0.010590857958215     0.014542295902926
1 37
    -1.629776942438923     0.891784908487090    -0.547799030663461
     2.336749229345773     0.319040138128074     0.412197458891208
    -0.470863029793069     0.127791703937461     0.351702321373601
1 38
    -0.283582278532341    -0.000000000000000    -0.164007301702009
    -0.000000000000000    -0.705901253970580     0.000000000000000
    -0.073623495354330    -0.000000000000000     0.160379538760984
1 39
    -1.629776942438923    -0.891784908487090    -0.547799030663461
    -2.336749229345772     0.319040138128074    -0.412197458891207
    -0.470863029793069    -0.127791703937460     0.351702321373601
1 40
     0.031378881563987     0.044300091777290     0.052006394994789
     0.049761738126839     0.063559267144376     0.017727642788369
     0.056038617903399     0.010707599575818    -0.289176883934004
1 41
    -0.007411350793286     0.000000000000000     0.031029670639857
    -0.000000000000000    -0.126666623606624     0.000000000000000
     0.035763050504608    -0.000000000000000    -0.229858383542945
1 42
     0.031378881563987    -0.044300091777290     0.052006394994789
    -0.049761738126839     0.063559267144376    -0.017727642788369
     0.056038617903399    -0.010707599575818    -0.289176883934004
1 43
     0.226383731277062    -1.397294739735969     1.161904205862489
    -0.511861371210297     0.316857719750372     0.400315310121023
     0.644184426108924     1.086152426213008    -1.268668346857168
1 44
     0.167106850517445     0.000000000000000     0.060772569903569
    -0.000000000000000    -0.568630240182946    -0.000000000000000
     0.078903460592225    -0.000000000000000    -0.182738159227323
1 45
     0.226383731277062     1.397294739735969     1.161904205862489
     0.511861371210297     0.316857719750372    -0.400315310121024
     0.644184426108924    -1.086152426213008    -1.268668346857168
1 46
     0.552331275752296    -0.641936851957986    -0.027561270145378
    -0.260443504244403     0.341116687610696    -0.791580668659676
     0.191303240354862    -2.036097613620626    -2.041395982698901
1 47
     0.126786826752172     0.000000000000000     0.182106182909546
    -0.000000000000000    -0.685845306981337    -0.000000000000000
     0.049566197264740    -0.000000000000000    -0.241019684829090
1 48
     0.552331275752296     0.641936851957986    -0.027561270145378
     0.260443504244403     0.341116687610695     0.791580668659676
     0.191303240354862     2.036097613620626    -2.041395982698901
1 49
    -0.022664388142362    -0.000000000000000    -0.841989351426481
    -0.000000000000000    -0.066258154873082    -0.000000000000000
    -0.163838672948174     0.000000000000000     0.762665926915556
1 50
    -0.082185533749107     0.079174808982999    -0.058985917547379
     0.035420490969487     0.057656760275755    -0.115287110186971
    -0.058770024126701    -0.083449085121556     0.212176619269199
1 51
    -0.082185533749107    -0.079174808982999    -0.058985917547379
    -0.035420490969487     0.057656760275755     0.115287110186970
    -0.058770024126701     0.083449085121556     0.212176619269199
1 52
    -1.750118741150008    -0.000000000000000    -2.473727843284765
     0.000000000000000    -1.842273843033366     0.000000000000001
    -2.795033902635551    -0.000000000000001   -10.297780954805861
1 53
    -0.339391837080627     0.031959407323735    -0.365249974925472
     0.141244725620564     0.532382643670008     0.627924443060181
    -0.070611430342103     0.544330198472522    -0.295955113910642
1 54
    -0.339391837080628    -0.031959407323735    -0.365249974925472
    -0.141244725620565     0.532382643670008    -0.627924443060181
    -0.070611430342103    -0.544330198472522    -0.295955113910642
1 55
     0.749919009492186    -0.000000000000000    -0.247108046212746
     0.000000000000000    -0.866397458492258     0.000000000000000
    -0.100529148544854    -0.000000000000000    -0.442410089769813
1 56
     0.220789316845254    -0.203249303248527    -0.110787425357081
    -0.353632265917703     0.468127065168474     0.213251536508519
     0.070668297290683    -0.020149679573589    -0.258305247077472
1 57
     0.220789316845254     0.203249303248527    -0.110787425357081
     0.353632265917704     0.468127065168474    -0.213251536508518
     0.070668297290683     0.020149679573589    -0.258305247077472
1 58
    -0.034341575467864     0.000000000000000     0.064637866735071
     0.000000000000000    -0.098923164475563     0.000000000000000
     0.045780538383069     0.000000000000000     0.315355471459317
1 59
    -0.021779947770600     0.014870849367844     0.029383201059348
    -0.013855799504379     0.051271321026975    -0.070907636668527
     0.041955413731784    -0.055877688453278     0.225859890887470
1 60
    -0.021779947770600    -0.014870849367844     0.029383201059348
     0.013855799504379     0.051271321026975     0.070907636668528
     0.041955413731784     0.055877688453278     0.225859890887470
1 61
     0.104971515808998    -0.037869062065571     0.146940730591026
    -0.014596966560041    -0.044936606446596    -0.022323884642599
     0.050478862319597    -0.033007480866473     0.114654229911778
1 62
     0.084230398476455     0.000000000000000     0.098663662156159
    -0.000000000000000     0.090764457893383    -0.000000000000000
     0.023911705506908     0.000000000000000     0.085768783670638
1 63
     0.104971515808998     0.037869062065571     0.146940730591026
     0.014596966560041    -0.044936606446596     0.022323884642599
     0.050478862319597     0.033007480866473     0.114654229911778
1 64
     0.167741916537808    -0.018405148488941    -0.018606731916593
    -0.010388076719064    -0.033952410070772     0.011636071246612
    -0.004994484206885     0.017155646034402    -0.075594568875120
1 65
     0.119195600897694    -0.000000000000000     0.000116224780701
    -0.000000000000000     0.068526930950708    -0.000000000000000
     0.005687792219049    -0.000000000000000    -0.071140295896534
1 66
     0.167741916537808     0.018405148488941    -0.018606731916593
     0.010388076719064    -0.033952410070772    -0.011636071246613
    -0.004994484206885    -0.017155646034402    -0.075594568875120
1 67
     0.512714293830959     0.512422808468730     0.254916888790270
     0.336561109333614    -0.057349896992529     0.040697114119724
     0.137859266786992    -0.023084831904225    -0.652522608243068
1 68
    -0.021361313854888    -0.000000000000000     0.025560955421092
     0.000000000000000     0.205704879644249     0.000000000000000
     0.005704111385302    -0.000000000000000    -0.205608846516538
1 69
     0.512714293830959    -0.512422808468730     0.254916888790270
    -0.336561109333614    -0.057349896992529    -0.040697114119723
     0.137859266786992     0.023084831904224    -0.652522608243068
1 70
     0.057764746896546     0.049065825574136    -0.036762051254435
     0.016212610130472    -0.014265788972952     0.007317347826121
    -0.004327050836944     0.035032153215824     0.314917178875164
1 71
     0.009256342172557    -0.000000000000000    -0.031625222731787
     0.000000000000000     0.033396115566890     0.000000000000000
    -0.001324262196912     0.000000000000000     0.163977145063700
1 72
     0.057764746896546    -0.049065825574136    -0.036762051254435
    -0.016212610130472    -0.014265788972952    -0.007317347826120
    -0.004327050836944    -0.035032153215824     0.314917178875164
1 73
     0.238708364460564     0.000000000000000     0.005809188741569
     0.000000000000000    -0.032436119776468    -0.000000000000000
    -0.055783801057081     0.000000000000000     0.067319194706019
1 74
     0.194440569074010     0.053094920748211     0.009684371398413
    -0.008347352043180     0.013778245259301    -0.002975986950308
    -0.055460627130623    -0.033542984415158     0.056672812771683
1 75
     0.194440569074010    -0.053094920748211     0.009684371398413
     0.008347352043180     0.013778245259301     0.002975986950308
    -0.055460627130623     0.033542984415158     0.056672812771683
1 76
     0.223163427900832     0.000000000000000     0.142341376412632
    -0.000000000000000    -0.098304407363484    -0.000000000000000
     0.158711417802132    -0.000000000000000    -0.035302113137662
1 77
     0.160267937272834     0.103858569176526     0.105621794374007
     0.030345928068588     0.050633280156659     0.030160636304673
     0.069827646845725     0.039125694383117    -0.047796934116357
1 78
     0.160267937272834    -0.103858569176526     0.105621794374007
    -0.030345928068588     0.050633280156659    -0.030160636304673
     0.069827646845725    -0.039125694383117    -0.047796934116357
1 79
     0.382729412747616     0.000000000000000     0.031629962762862
    -0.000000000000000    -0.094388127593124     0.000000000000000
    -0.028911568989222    -0.000000000000000    -0.088739661566089
1 80
     0.287858899012832     0.080741434649987     0.018259444620897
     0.033222980954905     0.049898820495166    -0.009825494033149
    -0.018226253840145    -0.003908166487831    -0.071665396997442
1 81
     0.287858899012832    -0.080741434649987     0.018259444620897
    -0.033222980954906     0.049898820495166     0.009825494033149
    -0.018226253840145     0.003908166487831    -0.071665396997442
1 82
     0.108284077649151     0.000000000000000     0.055824139946645
    -0.000000000000000    -0.022654223805417     0.000000000000000
     0.119631070951435     0.000000000000000     0.105391860777594
1 83
     0.086073640542186     0.013977646511148     0.044365183196451
    -0.004202182446808     0.010173859317795     0.000786022754167
     0.106098278691186     0.029184799052631     0.089392287374815
1 84
     0.086073640542186    -0.013977646511148     0.044365183196451
     0.004202182446808     0.010173859317795    -0.000786022754166
     0.106098278691186    -0.029184799052631     0.089392287374815
1 85
    -0.579123383102549     0.130655556186452     0.080404591967549
     0.037581529528276    -0.091883754295316    -0.401177210271726
     0.325194819949334    -0.383940651150396     0.385441348976002
1 86
    -0.180507051115139    -0.000000000000000     0.043314264966276
     0.000000000000000     0.243983139741818    -0.000000000000000
     0.069901854307464     0.000000000000000     0.048916098329068
1 87
    -0.579123383102549    -0.130655556186452     0.080404591967549
    -0.037581529528275    -0.091883754295316     0.401177210271726
     0.325194819949334     0.383940651150396     0.385441348976002
1 88
    -0.255198319601655    -0.019605426156650    -0.341843289010976
    -0.098558869129766    -0.116697339810979     0.292203015634085
    -0.753018195849662     0.471736015348142     0.052804157033968
1 89
    -0.079734367489639    -0.000000000000000    -0.112401853992780
     0.000000000000000     0.259091545107237    -0.000000000000000
    -0.166757877937237     0.000000000000000    -0.038920110263694
1 90
    -0.255198319601655     0.019605426156650    -0.341843289010976
     0.098558869129766    -0.116697339810979    -0.292203015634085
    -0.753018195849662    -0.471736015348142     0.052804157033968
1 91
    -4.428662408230847     4.166325120466457    -1.086929929086774
     3.987361380063863    -8.162804380805358     1.315575296709355
    -1.082088034096292     1.303024012246885    -1.136519067724050
1 92
    -0.241703397876592    -0.000000000000000    -0.033848167664117
     0.000000000000000     1.205671708767188     0.000000000000000
    -0.037945173109433     0.000000000000000    -0.159730377816314
1 93
    -4.428662408230847    -4.166325120466456    -1.086929929086774
    -3.987361380063862    -8.162804380805357    -1.315575296709355
    -1.082088034096292    -1.303024012246887    -1.136519067724050
1 94
    -0.153916327633831     0.070588515550411    -0.103046167360782
    -0.014292618549628    -0.036803052592549     0.000025571940269
    -0.093017169854407     0.013122273455691     0.215409339215278
1 95
    -0.068672062521411    -0.000000000000000    -0.048751432367251
    -0.000000000000000     0.076142338605209     0.000000000000000
    -0.044370984813064     0.000000000000000     0.111428891638711
1 96
    -0.153916327633831    -0.070588515550411    -0.103046167360782
     0.014292618549628    -0.036803052592549    -0.000025571940269
    -0.093017169854407    -0.013122273455691     0.215409339215278
1 97
     0.423722953880469     0.000000000000000     0.548282841354936
    -0.000000000000000    -0.659431588744258    -0.000000000000000
     0.441865125527488    -0.000000000000000    -0.026044671210998
1 98
     0.148352046942798    -0.134458748956251     0.257390363783428
    -0.290026047014145     0.360155625959082    -0.318211355736081
     0.111751115964833    -0.063142740380754    -0.080352480725259
1 99
     0.148352046942798     0.134458748956251     0.257390363783429
     0.290026047014145     0.360155625959082     0.318211355736080
     0.111751115964833     0.063142740380754    -0.080352480725259
1 100
     0.120015975644952    -0.000000000000000    -0.162391617862183
    -0.000000000000000    -0.066871881439535    -0.000000000000000
    -0.189408334219738     0.000000000000000     0.165760941291660
1 101
     0.073930525114774    -0.005887571366459    -0.079255547992446
    -0.047939003761444     0.033619974847277     0.046226102975564
    -0.151189410684923     0.057043694273477     0.115255899788898
1 102
     0.073930525114774     0.005887571366459    -0.079255547992446
     0.047939003761444     0.033619974847277    -0.046226102975565
    -0.151189410684923    -0.057043694273477     0.115255899788898
1 103
    -5.014383476741209     0.000000000000000     3.315292177129464
     0.000000000000001    -1.569988015171658    -0.000000000000000
     3.553294258766504    -0.000000000000000    -4.890809434095959
1 104
    -0.578987636685091     0.291080415344401     0.174143318999853
     0.504511324837604     0.442612976174298    -0.389653068665306
    -0.093298598951008    -0.365310905445675    -0.161929949303054
1 105
    -0.578987636685091    -0.291080415344401     0.174143318999854
    -0.504511324837603     0.442612976174298     0.389653068665306
    -0.093298598951008     0.365310905445675    -0.161929949303054
1 106
    -0.142249374768192     0.000000000000000     0.252035848889719
     0.000000000000000    -0.012045641503051     0.000000000000000
    -0.188192955977733     0.000000000000000     1.110110968981729
1 107
    -0.079820063270917     0.033512908562864    -0.102627582510600
     0.001961074370129     0.037889231235773     0.131552541046523
    -0.059099663491158     0.104572945648423     0.201153759902208
1 108
    -0.079820063270917    -0.033512908562864    -0.102627582510600
    -0.001961074370128     0.037889231235773    -0.131552541046522
    -0.059099663491158    -0.104572945648423     0.201153759902208
1 109
     0.465012380147233     0.362868582485090    -0.241389416399586
    -0.051065907080553    -0.135604645548802    -0.048239578862638
    -0.517051772114093    -0.368063109245724     0.160970663750742
1 110
    -0.003516387781694    -0.000000000000000    -0.024047909451515
    -0.000000000000000     0.180833862066015    -0.000000000000000
    -0.125796471550234     0.000000000000000     0.020299630581705
1 111
     0.465012380147233    -0.362868582485090    -0.241389416399586
     0.051065907080552    -0.135604645548801     0.048239578862637
    -0.517051772114093     0.368063109245724     0.160970663750742
1 112
     0.008727024518033     0.090350099400651     0.124469570321168
    -0.044804973836032    -0.097597196490802     0.010448024054448
     0.422173272512451     0.331142874534388     0.426274629833244
1 113
    -0.086625194660434    -0.000000000000000    -0.031039355253616
    -0.000000000000000     0.132205254341582    -0.000000000000000
     0.097735066178238     0.000000000000000     0.051570121998622
1 114
     0.008727024518033    -0.090350099400651     0.124469570321168
     0.044804973836031    -0.097597196490801    -0.010448024054449
     0.422173272512451    -0.331142874534388     0.426274629833244
1 115
     0.313755724197622    -0.075386654669120     0.046850148319198
    -0.041205618440152    -0.072894282978925    -0.012906284017346
     0.052536114029066    -0.026007955001874    -0.089786490575849
1 116
     0.230344056788318    -0.000000000000000     0.013576001087492
     0.000000000000000     0.144709513920930     0.000000000000000
     0.030132813211386     0.000000000000000    -0.051187680895791
1 117
     0.313755724197622     0.075386654669120     0.046850148319198
     0.041205618440153    -0.072894282978925     0.012906284017346
     0.052536114029066     0.026007955001874    -0.089786490575849
1 118
     0.091579159358382    -0.000796662706598     0.025623397665660
    -0.007712245657814    -0.018794956885493     0.002223920379122
     0.021102423831313     0.009498746277428     0.075949689901121
1 119
     0.077857238781615     0.000000000000000     0.025438658994451
     0.000000000000000     0.037715677411653     0.000000000000000
     0.012241593356604     0.000000000000000     0.063504445185601
1 120
     0.091579159358382     0.000796662706598     0.025623397665660
     0.007712245657814    -0.018794956885493    -0.002223920379121
     0.021102423831313    -0.009498746277428     0.075949689901121
7 1
     0.402246725130584    -0.000000000000000    -0.654624020322637
    -0.000000000000000     0.615702732460197    -0.000000000000000
    -0.654762432118269    -0.000000000000000    -0.957395581886900
7 2
     0.138305777272228    -0.005702757510491    -0.297021294814602
    -0.005716795892570    -0.291831174469847    -0.315839034260972
    -0.297071604017494    -0.315805053063107    -0.139251509094476
7 3
     0.138305777272228     0.005702757510491    -0.297021294814602
     0.005716795892570    -0.291831174469847     0.315839034260972
    -0.297071604017494     0.315805053063107    -0.139251509094476
7 4
    -0.333083388251502     0.000000000000000     1.043911701606553
    -0.000000000000000     0.517564333102394    -0.000000000000000
     1.043947844061878     0.000000000000000    -0.121103753111221
7 5
    -0.153155392489068    -0.126828983105339     0.320612065675884
    -0.126791968035155    -0.240781197450446     0.307153378024399
     0.320557897840925     0.307240545071409     0.212603459483083
7 6
    -0.153155392489068     0.126828983105339     0.320612065675884
     0.126791968035155    -0.240781197450446    -0.307153378024399
     0.320557897840925    -0.307240545071409     0.212603459483083
7 7
    16.751826906411328    -0.000000000000000     0.101671502470446
    -0.000000000000001    23.414687195678557    -0.000000000000001
     0.100977807891197     0.000000000000003    20.860642125671571
7 8
     1.692725127343053    -0.637611648916116     0.201568468526129
     0.637681605515234    -3.614575730884765     0.166658622914343
     0.201776725713417    -0.166618499115784     0.986330111480990
7 9
     1.692725127343053     0.637611648916116     0.201568468526129
    -0.637681605515235    -3.614575730884765    -0.166658622914343
     0.201776725713417     0.166618499115784     0.986330111480990
7 10
     0.317267771787760     0.000000000000000     0.301882470290185
     0.000000000000000     0.137126804813003     0.000000000000000
     0.301694739281044    -0.000000000000000    -0.731566563912564
7 11
     0.056386319059269     0.045049503258793     0.110049153737003
    -0.044997811418387    -0.061844689509954    -0.019851790679228
     0.110130081235104     0.019873101581770    -0.369465878494514
7 12
     0.056386319059269    -0.045049503258793     0.110049153737003
     0.044997811418387    -0.061844689509954     0.019851790679229
     0.110130081235104    -0.019873101581770    -0.369465878494514
7 13
    -0.308931736587982     0.029185886392837     0.172606414588115
     0.029229146939469     0.003320998537870    -0.001818961456175
     0.172501928121513    -0.001798441279991    -0.324228047499586
7 14
    -0.074187964985134     0.000000000000000     0.054120379990583
    -0.000000000000000    -0.011815074828495    -0.000000000000000
     0.054036983370284    -0.000000000000000    -0.170961710735093
7 15
    -0.308931736587982    -0.029185886392837     0.172606414588115
    -0.029229146939469     0.003320998537870     0.001818961456175
     0.172501928121513     0.001798441279991    -0.324228047499586
7 16
    -0.213727243445108     0.108560783278528    -0.508668372315018
     0.108458144498772     0.047754969633935     0.231166567121481
    -0.508690649109485     0.231205089315794     0.198862039414779
7 17
     0.077915024569599    -0.000000000000000    -0.102748235164731
    -0.000000000000000    -0.101912147002074    -0.000000000000000
    -0.102896807357372     0.000000000000000     0.152220793022870
7 18
    -0.213727243445108    -0.108560783278528    -0.508668372315018
    -0.108458144498772     0.047754969633936    -0.231166567121481
    -0.508690649109485    -0.231205089315794     0.198862039414779
7 19
    -0.446990723325659     0.014653008447818     0.020603523010045
    -0.014511028072252     0.042126208289832     0.001144868342202
     0.020564056079974    -0.001175622046404     0.135953393876567
7 20
    -0.271151129802121     0.000000000000000     0.011714088622497
     0.000000000000000    -0.085024605333358     0.000000000000000
     0.011769614399644     0.000000000000000     0.093170639931470
7 21
    -0.446990723325659    -0.014653008447818     0.020603523010045
     0.014511028072252     0.042126208289832    -0.001144868342202
     0.020564056079974     0.001175622046404     0.135953393876567
7 22
    -0.103019383548963     0.014662275201432    -0.104270663077658
    -0.014662363653188     0.004187929234199    -0.012873585470772
    -0.104228639936482     0.012964710607767    -0.149554439814902
7 23
    -0.064794480412980    -0.000000000000000    -0.076032386860404
     0.000000000000000    -0.008307107678167     0.000000000000000
    -0.075906572878689    -0.000000000000000    -0.107459587768993
7 24
    -0.103019383548963    -0.014662275201432    -0.104270663077658
     0.014662363653188     0.004187929234199     0.012873585470773
    -0.104228639936482    -0.012964710607767    -0.149554439814902
7 25
    -0.513313441598893    -0.000000000000000    -0.223049660207711
     0.000000000000000     0.070031064093081    -0.000000000000000
    -0.204698788301320    -0.000000000000000    -0.073983333455443
7 26
    -0.265156666598875    -0.052387700696887    -0.137508629787192