 120  120
1 1
    16.421012349506810    -0.000000000000000     0.042152824011815
     0.000000000000008    23.302355687133957    -0.000000000000003
     0.037710867863068     0.000000000000005    20.843654768782166
1 2
     1.627156292992314     0.690678836957309     0.218936104166323
    -0.690503796516882    -3.542306178679288    -0.193404642933591
     0.219027078336351     0.193420682651357     0.804806014454588
1 3
     1.627156292992314    -0.690678836957308     0.218936104166323
     0.690503796516883    -3.542306178679289     0.193404642933591
     0.219027078336351    -0.193420682651358     0.804806014454588
1 4
     0.141307558758691     0.000000000000000     0.159809271802713
    -0.000000000000000     0.082857955651912     0.000000000000000
     0.159853088383449    -0.000000000000000    -0.529086629701029
1 5
     0.114940360465664    -0.018841562674362     0.103602917521441
     0.018839406126005    -0.039897379582441     0.006012746033038
     0.103594306446294    -0.006013662963125    -0.275959540955574
1 6
     0.114940360465664     0.018841562674362     0.103602917521441
    -0.018839406126005    -0.039897379582441    -0.006012746033038
     0.103594306446294     0.006013662963125    -0.275959540955574
1 7
     0.352414872438927    -0.000000000000000    -0.562753505274341
     0.000000000000000     0.638881525620244    -0.000000000000000
    -0.562770068918017     0.000000000000000    -0.833340413772540
1 8
     0.105489983497265     0.066200947027367    -0.193567733888944
     0.066172485511008    -0.285861835360779     0.315073889252029
    -0.193605344986840     0.315158843627554    -0.103469702662500
1 9
     0.105489983497265    -0.066200947027367    -0.193567733888944
    -0.066172485511008    -0.285861835360779    -0.315073889252029
    -0.193605344986840    -0.315158843627554    -0.103469702662500
1 10
    -0.300449931475787     0.000000000000000     0.809446097048781
    -0.000000000000000     0.615074447267594     0.000000000000000
     0.809434189366890     0.000000000000000     0.000158882732614
1 11
    -0.097056258488186     0.178692872368554     0.201531378453107
     0.178678968728020    -0.256817647025828    -0.231269980075889
     0.201563271239491    -0.231379766271402     0.124945543674576
1 12
    -0.097056258488186    -0.178692872368554     0.201531378453107
    -0.178678968728020    -0.256817647025828     0.231269980075889
     0.201563271239491     0.231379766271402     0.124945543674576
1 13
    -0.317224100563921    -0.087701858423838     0.011285565884414
     0.087641585620379     0.036277470629229    -0.056253464741948
     0.011232018856413     0.056273942609318     0.096671641494657
1 14
    -0.141569111425056     0.000000000000000     0.018410835845689
    -0.000000000000000    -0.058646541475860     0.000000000000000
     0.018529478620437    -0.000000000000000     0.045068598574897
1 15
    -0.317224100563921     0.087701858423838     0.011285565884414
    -0.087641585620379     0.036277470629229     0.056253464741948
     0.011232018856413    -0.056273942609318     0.096671641494657
1 16
    -0.080249067260601    -0.015331474228057    -0.066896364819302
     0.015339442724537     0.011054687726006     0.029235678140677
    -0.066942305378978    -0.029233473863290    -0.087248687187686
1 17
    -0.069883448593086    -0.000000000000000    -0.049742092908973
    -0.000000000000000    -0.041915459640703     0.000000000000000
    -0.049723155283337    -0.000000000000000    -0.072855997858589
1 18
    -0.080249067260601     0.015331474228057    -0.066896364819302
    -0.015339442724537     0.011054687726006    -0.029235678140677
    -0.066942305378978     0.029233473863290    -0.087248687187686
1 19
    -0.097066058493580    -0.002779952624044     0.026538814630052
    -0.002801744268012     0.008600485738185     0.006915010704686
     0.026544220556251     0.006926572274215    -0.176428254298546
1 20
    -0.059652066342994     0.000000000000000     0.031288859980592
     0.000000000000000    -0.008084468440427    -0.000000000000000
     0.031302862035948    -0.000000000000000    -0.065595635404971
1 21
    -0.097066058493580     0.002779952624044     0.026538814630052
     0.002801744268012     0.008600485738185    -0.006915010704686
     0.026544220556251    -0.006926572274215    -0.176428254298546
1 22
    -0.194188708587417    -0.039977173540024    -0.414294762762183
    -0.040043050072376     0.035879929533205    -0.196035163075674
    -0.414141092362343    -0.195872314256769     0.033271456760359
1 23
     0.001244365117105    -0.000000000000000    -0.094692227223130
     0.000000000000000    -0.036870846735551    -0.000000000000000
    -0.094661871903912    -0.000000000000000     0.057524559801619
1 24
    -0.194188708587417     0.039977173540024    -0.414294762762183
     0.040043050072376     0.035879929533205     0.196035163075674
    -0.414141092362343     0.195872314256769     0.033271456760359
1 25
    -2.334283710139708     0.000000000000000     0.305932564486650
    -0.000000000000001     0.389296344559500     0.000000000000000
     1.321424971022570     0.000000000000000     0.948193572469738
1 26
    -0.099426003074445    -0.356170746931372     0.194539169032901
    -0.311544492284226    -0.148354700204240     0.052481611480977
     0.122353370214736     0.021715893353095     0.284132699194343
1 27
    -0.099426003074445     0.356170746931372     0.194539169032901
     0.311544492284226    -0.148354700204240    -0.052481611480976
     0.122353370214737    -0.021715893353095     0.284132699194343
1 28
    -0.039221392985825    -0.000000000000000    -0.078327956192477
     0.000000000000000     0.062473277573244     0.000000000000001
    -0.182302854795204    -0.000000000000000    -0.486901917078937
1 29
    -0.019104652380325    -0.040938219153625    -0.015027322685882
    -0.064879803097991    -0.026640230132573    -0.050940761587582
    -0.071347787138696    -0.089591599841015    -0.203064230285702
1 30
    -0.019104652380325     0.040938219153625    -0.015027322685882
     0.064879803097991    -0.026640230132573     0.050940761587583
    -0.071347787138696     0.089591599841015    -0.203064230285701
1 31
    -0.442107481920525    -0.000000000000000    -0.276711811764978
    -0.000000000000000     0.144144774692677    -0.000000000000001
    -0.175521851187361     0.000000000000000    -0.108858502168453
1 32
    -0.150704905420813     0.092595060684159    -0.105887435379832
     0.064756196790758    -0.070994755943219     0.061934128147271
    -0.071294198384305     0.046593207434702    -0.045782909981814
1 33
    -0.150704905420813    -0.092595060684159    -0.105887435379832
    -0.064756196790758    -0.070994755943219    -0.061934128147272
    -0.071294198384305    -0.046593207434702    -0.045782909981814
1 34
    -0.165927912216616     0.000000000000000     0.038578255649461
    -0.000000000000000     0.032769160965552    -0.000000000000000
    -0.052594727026531     0.000000000000000     0.018414502466734
1 35
    -0.112638031915093     0.061179467755841    -0.003064721342699
     0.018657258386568    -0.013489793790766    -0.031691092978965
    -0.029783262909128    -0.014533755782484    -0.005610991046919
1 36
    -0.112638031915093    -0.061179467755841    -0.003064721342699
    -0.018657258386569    -0.013489793790766     0.031691092978964
    -0.029783262909128     0.014533755782484    -0.005610991046919
1 37
    -1.680740907651776     0.852947940270300    -0.517866312461044
     2.135416111206484     0.285472099419815     0.424694264801674
    -0.439596725369833     0.140609889634955     0.268734464596874
1 38
    -0.314999780799126     0.000000000000000    -0.151933745058256
     0.000000000000000    -0.627332905979221     0.000000000000000
    -0.088949597461793    -0.000000000000000     0.159028052555888
1 39
    -1.680740907651776    -0.852947940270300    -0.517866312461044
    -2.135416111206485     0.285472099419815    -0.424694264801674
    -0.439596725369834    -0.140609889634955     0.268734464596873
1 40
    -0.003683688728896     0.000890588431635     0.040917665982279
     0.073952549847143     0.036570108581781     0.009527839782425
     0.051505295851469     0.003545427340331    -0.182245548277884
1 41
    -0.013767918906576     0.000000000000000    -0.021731411218580
     0.000000000000000    -0.056195580977618     0.000000000000000
     0.009587890457372    -0.000000000000000    -0.087652898315185
1 42
    -0.003683688728896    -0.000890588431635     0.040917665982279
    -0.073952549847143     0.036570108581781    -0.009527839782424
     0.051505295851469    -0.003545427340331    -0.182245548277884
1 43
    -0.002082645794996    -1.149915110726500     1.203104718899190
    -0.501553419318514     0.302124636396067     0.379968616179688
     0.647466666621731     1.012313335921408    -1.270191340902066
1 44
     0.116034258120142     0.000000000000000     0.026322660794069
    -0.000000000000000    -0.671462546194486    -0.000000000000000
     0.125655460125888    -0.000000000000000    -0.112181370939220
1 45
    -0.002082645794996     1.149915110726500     1.203104718899190
     0.501553419318513     0.302124636396068    -0.379968616179688
     0.647466666621731    -1.012313335921408    -1.270191340902066
1 46
     0.489833608737185    -0.458360214587733    -0.087458680242918
    -0.294939352330489     0.326791508538899    -0.761158409284361
     0.220941247839251    -1.834070154202492    -2.012219577714124
1 47
     0.126922412207058     0.000000000000000     0.151692274197371
    -0.000000000000000    -0.725436299574242    -0.000000000000000
    -0.009910646179907    -0.000000000000000    -0.170714224305378
1 48
     0.489833608737185     0.458360214587733    -0.087458680242918
     0.294939352330489     0.326791508538899     0.761158409284360
     0.220941247839252     1.834070154202492    -2.012219577714124
1 49
     0.056364000536539    -0.000000000000000    -0.740315452020655
    -0.000000000000001    -0.063875581121924     0.000000000000000
    -0.168573469011636     0.000000000000000     0.709901007822258
1 50
    -0.043546623071214     0.041995566750401    -0.064203117362002
     0.043008173340042     0.083330985893064    -0.080113570331366
    -0.063632974164588    -0.097211785042120     0.176316211677616
1 51
    -0.043546623071214    -0.041995566750401    -0.064203117362002
    -0.043008173340043     0.083330985893064     0.080113570331367
    -0.063632974164588     0.097211785042120     0.176316211677616
1 52
    -1.820768594245964    -0.000000000000000    -2.537667284170595
    -0.000000000000001    -1.665870407712933     0.000000000000001
    -3.066700940291861    -0.000000000000001   -10.471466536435456
1 53
    -0.290368206811359     0.022937036379475    -0.396402063770097
     0.206302180031773     0.454774669860333     0.625769158642490
    -0.051188110981816     0.571050948665536    -0.263942176887922
1 54
    -0.290368206811359    -0.022937036379475    -0.396402063770097
    -0.206302180031775     0.454774669860333    -0.625769158642490
    -0.051188110981816    -0.571050948665535    -0.263942176887922
1 55
     0.758034845871371     0.000000000000000    -0.291343341995564
     0.000000000000001    -0.872301563239219    -0.000000000000001
    -0.040110856648967    -0.000000000000000    -0.298887060569658
1 56
     0.271881025481191    -0.287444731559979    -0.103776098170899
    -0.407537519258875     0.525653320506478     0.167279409095026
     0.060819367584160    -0.037452733111221    -0.210190829722823
1 57
     0.271881025481191     0.287444731559979    -0.103776098170899
     0.407537519258876     0.525653320506478    -0.167279409095027
     0.060819367584160     0.037452733111221    -0.210190829722823
1 58
    -0.047976375875771     0.000000000000000     0.063936145668194
     0.000000000000001    -0.112150941510581    -0.000000000000001
     0.088356225271143    -0.000000000000000     0.197633462236431
1 59
    -0.003959701429041    -0.026802639013637     0.009602869351466
    -0.019575708576110     0.047705431146625    -0.069476554638059
     0.032483984362390    -0.045207522304782     0.139143818796503
1 60
    -0.003959701429041     0.026802639013637     0.009602869351466
     0.019575708576112     0.047705431146625     0.069476554638058
     0.032483984362390     0.045207522304783     0.139143818796504
1 61
     0.046383442181676    -0.029709713344030     0.116897428561603
     0.007193810720680    -0.037390470469558    -0.027862422412549
     0.017590567761021    -0.020651503848660     0.047396067507497
1 62
     0.032917638686447     0.000000000000000     0.042768933588077
    -0.000000000000001     0.070878968592321     0.000000000000001
     0.021635622044753     0.000000000000000     0.027442446382144
1 63
     0.046383442181676     0.029709713344030     0.116897428561603
    -0.007193810720682    -0.037390470469558     0.027862422412551
     0.017590567761021     0.020651503848660     0.047396067507497
1 64
     0.139102812829730    -0.030964418597027     0.024723759742910
     0.007234454694508    -0.030573310437222     0.028972481502799
     0.019688838290983     0.013475894218621    -0.059022688671243
1 65
     0.052154739961878    -0.000000000000000     0.013464962155203
    -0.000000000000001     0.039404680727138     0.000000000000001
    -0.005487802558799     0.000000000000000    -0.033710508391385
1 66
     0.139102812829730     0.030964418597027     0.024723759742910
    -0.007234454694510    -0.030573310437222    -0.028972481502798
     0.019688838290983    -0.013475894218622    -0.059022688671243
1 67
     0.566216473010188     0.547217633363637     0.285367245239527
     0.182571281524351    -0.051588943382688     0.012766586768339
     0.141178292862895    -0.009946388398729    -0.579394194563601
1 68
    -0.050016634546631    -0.000000000000000     0.045539814883417
     0.000000000000001     0.122073551460233    -0.000000000000000
     0.001555573440892     0.000000000000000    -0.155895127938910
1 69
     0.566216473010188    -0.547217633363637     0.285367245239527
    -0.182571281524349    -0.051588943382688    -0.012766586768340
     0.141178292862895     0.009946388398728    -0.579394194563601
1 70
     0.019639916488374     0.029873621914314    -0.043069957749811
     0.030779198003381    -0.022336288654410     0.005900025130759
    -0.017379140956519     0.000178838855027     0.201706300232135
1 71
     0.002477158441035     0.000000000000000     0.007964733677440
     0.000000000000001     0.031244619752233    -0.000000000000001
     0.015490245004879     0.000000000000000     0.078994446584994
1 72
     0.019639916488374    -0.029873621914314    -0.043069957749811
    -0.030779198003379    -0.022336288654410    -0.005900025130760
    -0.017379140956519    -0.000178838855027     0.201706300232135
1 73
     0.203743767206033     0.000000000000000     0.012592626335246
     0.000000000000000    -0.052502529380044     0.000000000000000
     0.027655408307607    -0.000000000000000     0.026328128169092
1 74
     0.110327837328910     0.021896965240098    -0.003758496784078
    -0.014182136664000     0.024269710932716    -0.016248367839404
    -0.006420023019586    -0.031015084653819     0.018135834972422
1 75
     0.110327837328910    -0.021896965240098    -0.003758496784078
     0.014182136664000     0.024269710932716     0.016248367839404
    -0.006420023019586     0.031015084653819     0.018135834972422
1 76
     0.257105920724922     0.000000000000000     0.140679613570075
     0.000000000000000    -0.069228229498657     0.000000000000000
     0.108495335611431    -0.000000000000000     0.015545058546657
1 77
     0.099383139376086     0.015894188536371     0.062857427995313
    -0.011652272845045     0.015145262743249     0.001110116390119
     0.078945309347910     0.001337475793127    -0.013439133697000
1 78
     0.099383139376086    -0.015894188536371     0.062857427995313
     0.011652272845045     0.015145262743249    -0.001110116390119
     0.078945309347910    -0.001337475793127    -0.013439133697000
1 79
     0.397174888349820     0.000000000000000     0.002882517754240
     0.000000000000000    -0.067727406790560    -0.000000000000000
    -0.059093355225246    -0.000000000000000    -0.045556734141286
1 80
     0.119203588688333     0.019787621571596    -0.004589169841195
    -0.021192635747374     0.028858789690679    -0.014792054472282
    -0.005054886215329    -0.005022911534293    -0.043379300463529
1 81
     0.119203588688333    -0.019787621571596    -0.004589169841195
     0.021192635747374     0.028858789690679     0.014792054472282
    -0.005054886215329     0.005022911534293    -0.043379300463529
1 82
     0.066154973776022     0.000000000000000     0.038937188904245
    -0.000000000000000    -0.018474357477230    -0.000000000000000
     0.093634301642442     0.000000000000000     0.078924534831240
1 83
     0.053426695227806    -0.012565382883450     0.051661212250203
     0.006976134582495     0.010915990955817     0.003839145006482
     0.081148345451182    -0.004942238533717     0.067168604149752
1 84
     0.053426695227806     0.012565382883450     0.051661212250203
    -0.006976134582495     0.010915990955817    -0.003839145006482
     0.081148345451182     0.004942238533717     0.067168604149752
1 85
    -0.494352923516038     0.130598165084992     0.064144092976160
    -0.008403623058945    -0.060377459596340    -0.432015284328693
     0.281165252937095    -0.369150348882432     0.321992717160733
1 86
    -0.119546466001734    -0.000000000000000    -0.008821018261310
     0.000000000000000     0.151148782810751     0.000000000000000
     0.012930429094639     0.000000000000000    -0.021333524496365
1 87
    -0.494352923516038    -0.130598165084992     0.064144092976160
     0.008403623058945    -0.060377459596340     0.432015284328693
     0.281165252937095     0.369150348882432     0.321992717160733
1 88
    -0.199146566389932    -0.015458077903911    -0.304636351208923
    -0.147508992193425    -0.067782943387946     0.348879374817831
    -0.670573648642130     0.389377531126690     0.119550642262666
1 89
    -0.085888690054477    -0.000000000000000    -0.053472344481802
     0.000000000000000     0.146099853836588     0.000000000000000
    -0.060278108718076     0.000000000000000    -0.040372954102564
1 90
    -0.199146566389932     0.015458077903911    -0.304636351208923
     0.147508992193425    -0.067782943387946    -0.348879374817831
    -0.670573648642130    -0.389377531126690     0.119550642262666
1 91
    -4.442623652410084     4.167514601511784    -1.045173845517731
     4.379857301790130    -8.271379429886601     1.401160934254255
    -1.030818041413394     1.348108095579982    -1.008524037538854
1 92
    -0.066835241221650    -0.000000000000000     0.045110871977367
    -0.000000000000000     1.241716439029700     0.000000000000000
     0.024899063365022     0.000000000000000    -0.154971955646997
1 93
    -4.442623652410084    -4.167514601511784    -1.045173845517730
    -4.379857301790134    -8.271379429886602    -1.401160934254256
    -1.030818041413395    -1.348108095579985    -1.008524037538854
1 94
    -0.094945234201518    -0.010197376635268    -0.037794006846162
    -0.017350308755580    -0.035914630418253    -0.001497949134124
    -0.063701990245272     0.008962468536358     0.112840491408949
1 95
    -0.066320060875187    -0.000000000000000    -0.026030612266022
    -0.000000000000000     0.055130947060540    -0.000000000000000
    -0.041599342079791     0.000000000000000     0.077694577231788
1 96
    -0.094945234201518     0.010197376635268    -0.037794006846162
     0.017350308755580    -0.035914630418253     0.001497949134124
    -0.063701990245272    -0.008962468536358     0.112840491408949
1 97
     0.432270580190624     0.000000000000000     0.579258335010262
     0.000000000000000    -0.666070844314293     0.000000000000000
     0.365628229954947    -0.000000000000000     0.044083973292136
1 98
     0.212248089276876    -0.201197779398953     0.263970108372115
    -0.326662283543674     0.416959761136904    -0.337145362389690
     0.152629282539867    -0.069949223756804    -0.031622023402784
1 99
     0.212248089276876     0.201197779398953     0.263970108372115
     0.326662283543674     0.416959761136904     0.337145362389690
     0.152629282539868     0.069949223756804    -0.031622023402784
1 100
     0.077733721139456    -0.000000000000000    -0.122732786616635
     0.000000000000000    -0.089715037521119    -0.000000000000000
    -0.158059535500468    -0.000000000000000     0.077874585766894
1 101
     0.064059653700994    -0.035078014683830    -0.045842752466472
    -0.044591246638456     0.039070888549670     0.051548803472176
    -0.075953682374524     0.015228161301976     0.085679251907640
1 102
     0.064059653700994     0.035078014683830    -0.045842752466472
     0.044591246638456     0.039070888549670    -0.051548803472176
    -0.075953682374524    -0.015228161301976     0.085679251907640
1 103
    -4.968664434220778     0.000000000000000     3.153462150830507
    -0.000000000000002    -1.433506477757406     0.000000000000002
     3.551543821461994    -0.000000000000001    -4.799357588221899
1 104
    -0.517382658223707     0.254341941937701     0.144186426728910
     0.523658782734122     0.428451349890028    -0.385998229418812
    -0.146215386025868    -0.369063171672535    -0.096382059338979
1 105
    -0.517382658223707    -0.254341941937701     0.144186426728910
    -0.523658782734122     0.428451349890028     0.385998229418812
    -0.146215386025868     0.369063171672535    -0.096382059338979
1 106
    -0.117555861751180     0.000000000000000     0.259498881838437
    -0.000000000000000    -0.023641754327345    -0.000000000000000
    -0.139335006639564     0.000000000000000     1.011618318182441
1 107
    -0.061062134847639    -0.004276439003075    -0.039534517675758
    -0.003277139867269     0.051665067504336     0.116052086930075
    -0.010000051258193     0.050392223804919     0.163202464852952
1 108
    -0.061062134847639     0.004276439003075    -0.039534517675758
     0.003277139867269     0.051665067504336    -0.116052086930075
    -0.010000051258193    -0.050392223804919     0.163202464852952
1 109
     0.441962962076607     0.327606947076836    -0.272541915950879
     0.038240200850498    -0.093970102425677    -0.109901186041541
    -0.476253676583885    -0.376798167265112     0.131947897071354
1 110
     0.002410694542477    -0.000000000000000    -0.017963154614809
     0.000000000000000     0.049496255815788     0.000000000000000
    -0.119497715356639     0.000000000000000    -0.000130561876953
1 111
     0.441962962076607    -0.327606947076836    -0.272541915950879
    -0.038240200850498    -0.093970102425677     0.109901186041541
    -0.476253676583885     0.376798167265112     0.131947897071354
1 112
     0.003721964471461     0.078672174875713     0.205887860932673
    -0.022014570781314    -0.067392980175944     0.096869205933142
     0.413686644936876     0.329615063983879     0.494580132719195
1 113
    -0.062156497057090    -0.000000000000000    -0.008662422388419
     0.000000000000000     0.076260395729700     0.000000000000000
     0.096905563847818     0.000000000000000     0.050031977455546
1 114
     0.003721964471461    -0.078672174875713     0.205887860932673
     0.022014570781314    -0.067392980175944    -0.096869205933142
     0.413686644936876    -0.329615063983879     0.494580132719195
1 115
     0.234638147365730    -0.096185911051288     0.033121467037019
    -0.042942156953076    -0.058323160101844    -0.036542608325426
     0.066492501264875    -0.033093383126168    -0.065179511624900
1 116
     0.151820556487862    -0.000000000000000     0.002994621820770
     0.000000000000000     0.121484340982949    -0.000000000000000
     0.037871139678528     0.000000000000000    -0.032532096582383
1 117
     0.234638147365730     0.096185911051288     0.033121467037019
     0.042942156953076    -0.058323160101844     0.036542608325426
     0.066492501264875     0.033093383126168    -0.065179511624900
1 118
     0.053096016481544    -0.009006796176291     0.020600797170495
     0.001213552825115    -0.018171977365650     0.003578413859420
     0.011885960991168     0.005162853628737     0.035334099791736
1 119
     0.095973747758100     0.000000000000000     0.013993316623373
     0.000000000000000     0.048201893703145    -0.000000000000000
    -0.001007853576908     0.000000000000000     0.064767553138624
1 120
     0.053096016481544     0.009006796176291     0.020600797170495
    -0.001213552825115    -0.018171977365650    -0.003578413859420
     0.011885960991168    -0.005162853628737     0.035334099791736
2 1
     1.627156292992314    -0.690678836957308     0.218936104166323
     0.690503796516883    -3.542306178679289     0.193404642933591
     0.219027078336351    -0.193420682651358     0.804806014454588
2 2
    16.421012349506810    -0.000000000000000     0.042152824011816
     0.000000000000008    23.302355687133957    -0.000000000000003
     0.037710867863068     0.000000000000005    20.843654768782166
2 3
     1.627156292992314     0.690678836957309     0.218936104166323
    -0.690503796516882    -3.542306178679288    -0.193404642933591
     0.219027078336351     0.193420682651357     0.804806014454588
2 4
     0.114940360465664     0.018841562674362     0.103602917521441
    -0.018839406126005    -0.039897379582441    -0.006012746033038
     0.103594306446294     0.006013662963125    -0.275959540955574
2 5
     0.141307558758691     0.000000000000000     0.159809271802713
    -0.000000000000000     0.082857955651912     0.000000000000000
     0.159853088383449    -0.000000000000000    -0.529086629701029
2 6
     0.114940360465664    -0.018841562674362     0.103602917521441
     0.018839406126005    -0.039897379582441     0.006012746033038
     0.103594306446294    -0.006013662963125    -0.275959540955574
2 7
     0.105489983497265    -0.066200947027367    -0.193567733888944
    -0.066172485511008    -0.285861835360779    -0.315073889252029
    -0.193605344986840    -0.315158843627554    -0.103469702662500
2 8
     0.352414872438927    -0.000000000000000    -0.562753505274341
     0.000000000000000     0.638881525620244    -0.000000000000000
    -0.562770068918017     0.000000000000000    -0.833340413772540
2 9
     0.105489983497265     0.066200947027367    -0.193567733888944
     0.066172485511008    -0.285861835360779     0.315073889252029
    -0.193605344986840     0.315158843627554    -0.103469702662500
2 10
    -0.097056258488186    -0.178692872368554     0.201531378453107
    -0.178678968728020    -0.256817647025828     0.231269980075889
     0.201563271239491     0.231379766271402     0.124945543674576
2 11
    -0.300449931475787     0.000000000000000     0.809446097048781
    -0.000000000000000     0.615074447267594     0.000000000000000
     0.809434189366890     0.000000000000000     0.000158882732615
2 12
    -0.097056258488186     0.178692872368554     0.201531378453107
     0.178678968728020    -0.256817647025828    -0.231269980075889
     0.201563271239491    -0.231379766271402     0.124945543674576
2 13
    -0.317224100563921     0.087701858423838     0.011285565884414
    -0.087641585620379     0.036277470629229     0.056253464741948
     0.011232018856413    -0.056273942609318     0.096671641494657
2 14
    -0.317224100563921    -0.087701858423838     0.011285565884414
     0.087641585620379     0.036277470629229    -0.056253464741948
     0.011232018856413     0.056273942609318     0.096671641494657
2 15
    -0.141569111425056     0.000000000000000     0.018410835845689
    -0.000000000000000    -0.058646541475860     0.000000000000000
     0.018529478620437    -0.000000000000000     0.045068598574897
2 16
    -0.080249067260601     0.015331474228057    -0.066896364819302
    -0.015339442724537     0.011054687726006    -0.029235678140677
    -0.066942305378978     0.029233473863290    -0.087248687187686
2 17
    -0.080249067260601    -0.015331474228057    -0.066896364819302
     0.015339442724537     0.011054687726006     0.029235678140677
    -0.066942305378978    -0.029233473863290    -0.087248687187686
2 18
    -0.069883448593086    -0.000000000000000    -0.049742092908973
    -0.000000000000000    -0.041915459640703     0.000000000000000
    -0.049723155283337    -0.000000000000000    -0.072855997858589
2 19
    -0.097066058493580     0.002779952624044     0.026538814630052
     0.002801744268012     0.008600485738185    -0.006915010704686
     0.026544220556251    -0.006926572274215    -0.176428254298546
2 20
    -0.097066058493580    -0.002779952624044     0.026538814630052
    -0.002801744268012     0.008600485738185     0.006915010704686
     0.026544220556251     0.006926572274215    -0.176428254298546
2 21
    -0.059652066342994     0.000000000000000     0.031288859980592
     0.000000000000000    -0.008084468440427    -0.000000000000000
     0.031302862035948    -0.000000000000000    -0.065595635404971
2 22
    -0.194188708587417     0.039977173540024    -0.414294762762183
     0.040043050072376     0.035879929533205     0.196035163075674
    -0.414141092362343     0.195872314256769     0.033271456760359
2 23
    -0.194188708587417    -0.039977173540024    -0.414294762762183
    -0.040043050072376     0.035879929533205    -0.196035163075674
    -0.414141092362343    -0.195872314256769     0.033271456760359
2 24
     0.001244365117105    -0.000000000000000    -0.094692227223130
     0.000000000000000    -0.036870846735551    -0.000000000000000
    -0.094661871903912    -0.000000000000000     0.057524559801619
2 25
    -0.099426003074445     0.356170746931372     0.194539169032901
     0.311544492284226    -0.148354700204240    -0.052481611480976
     0.122353370214737    -0.021715893353095     0.284132699194343
2 26
    -2.334283710139708     0.000000000000000     0.305932564486650