nqpoint: 1      
natom:   20     
reciprocal_lattice:
- [   0.08016305,  -0.00000000,   0.01969499 ] # a*
- [   0.00000000,   0.32387389,  -0.00000000 ] # b*
- [  -0.00036698,   0.00000000,   0.17493770 ] # c*
phonon:
- q-position: [    0.0000000,    0.0000000,    0.0000000 ]
  band:
  - # 1
    frequency:   -0.0011201703
    eigenvector:
    - # atom 1
      - [  0.30494448425804,  0.00000000000000 ]
      - [ -0.00000000219921,  0.00000000000000 ]
      - [ -0.00219308297819,  0.00000000000000 ]
    - # atom 2
      - [  0.30494448425804,  0.00000000000000 ]
      - [ -0.00000000219921,  0.00000000000000 ]
      - [ -0.00219308297819,  0.00000000000000 ]
    - # atom 3
      - [  0.30494448425804,  0.00000000000000 ]
      - [ -0.00000000219922,  0.00000000000000 ]
      - [ -0.00219308297819,  0.00000000000000 ]
    - # atom 4
      - [  0.30494448425804,  0.00000000000000 ]
      - [ -0.00000000219921,  0.00000000000000 ]
      - [ -0.00219308297819,  0.00000000000000 ]
    - # atom 5
      - [  0.30496313161144,  0.00000000000000 ]
      - [ -0.00000000219938,  0.00000000000000 ]
      - [ -0.00216738338791,  0.00000000000000 ]
    - # atom 6
      - [  0.30496313161144,  0.00000000000000 ]
      - [ -0.00000000219938,  0.00000000000000 ]
      - [ -0.00216738338791,  0.00000000000000 ]
    - # atom 7
      - [  0.30496313161144,  0.00000000000000 ]
      - [ -0.00000000219938,  0.00000000000000 ]
      - [ -0.00216738338791,  0.00000000000000 ]
    - # atom 8
      - [  0.30496313161144,  0.00000000000000 ]
      - [ -0.00000000219938,  0.00000000000000 ]
      - [ -0.00216738338791,  0.00000000000000 ]
    - # atom 9
      - [  0.14601113609195,  0.00000000000000 ]
      - [ -0.00000000105348,  0.00000000000000 ]
      - [ -0.00104325371294,  0.00000000000000 ]
    - # atom 10
      - [  0.14601113609195,  0.00000000000000 ]
      - [ -0.00000000105348,  0.00000000000000 ]
      - [ -0.00104325371294,  0.00000000000000 ]
    - # atom 11
      - [  0.14601113609196,  0.00000000000000 ]
      - [ -0.00000000105348,  0.00000000000000 ]
      - [ -0.00104325371294,  0.00000000000000 ]
    - # atom 12
      - [  0.14601113609196,  0.00000000000000 ]
      - [ -0.00000000105348,  0.00000000000000 ]
      - [ -0.00104325371294,  0.00000000000000 ]
    - # atom 13
      - [  0.14607425810078,  0.00000000000000 ]
      - [ -0.00000000105353,  0.00000000000000 ]
      - [ -0.00105172307813,  0.00000000000000 ]
    - # atom 14
      - [  0.14607425810078,  0.00000000000000 ]
      - [ -0.00000000105353,  0.00000000000000 ]
      - [ -0.00105172307813,  0.00000000000000 ]
    - # atom 15
      - [  0.14607425810078,  0.00000000000000 ]
      - [ -0.00000000105353,  0.00000000000000 ]
      - [ -0.00105172307813,  0.00000000000000 ]
    - # atom 16
      - [  0.14607425810078,  0.00000000000000 ]
      - [ -0.00000000105353,  0.00000000000000 ]
      - [ -0.00105172307813,  0.00000000000000 ]
    - # atom 17
      - [  0.14607057251336,  0.00000000000000 ]
      - [ -0.00000000105337,  0.00000000000000 ]
      - [ -0.00104657439385,  0.00000000000000 ]
    - # atom 18
      - [  0.14607057251336,  0.00000000000000 ]
      - [ -0.00000000105337,  0.00000000000000 ]
      - [ -0.00104657439385,  0.00000000000000 ]
    - # atom 19
      - [  0.14607057251336,  0.00000000000000 ]
      - [ -0.00000000105337,  0.00000000000000 ]
      - [ -0.00104657439385,  0.00000000000000 ]
    - # atom 20
      - [  0.14607057251336,  0.00000000000000 ]
      - [ -0.00000000105337,  0.00000000000000 ]
      - [ -0.00104657439385,  0.00000000000000 ]
  - # 2
    frequency:   -0.0006080605
    eigenvector:
    - # atom 1
      - [  0.00216983817317,  0.00000000000000 ]
      - [  0.00000030907309,  0.00000000000000 ]
      - [  0.30494065303655,  0.00000000000000 ]
    - # atom 2
      - [  0.00216983817317,  0.00000000000000 ]
      - [  0.00000030907309,  0.00000000000000 ]
      - [  0.30494065303655,  0.00000000000000 ]
    - # atom 3
      - [  0.00216983817317,  0.00000000000000 ]
      - [  0.00000030907309,  0.00000000000000 ]
      - [  0.30494065303654,  0.00000000000000 ]
    - # atom 4
      - [  0.00216983817317,  0.00000000000000 ]
      - [  0.00000030907309,  0.00000000000000 ]
      - [  0.30494065303655,  0.00000000000000 ]
    - # atom 5
      - [  0.00218955137399,  0.00000000000000 ]
      - [  0.00000030909621,  0.00000000000000 ]
      - [  0.30494297918547,  0.00000000000000 ]
    - # atom 6
      - [  0.00218955137399,  0.00000000000000 ]
      - [  0.00000030909621,  0.00000000000000 ]
      - [  0.30494297918547,  0.00000000000000 ]
    - # atom 7
      - [  0.00218955137399,  0.00000000000000 ]
      - [  0.00000030909621,  0.00000000000000 ]
      - [  0.30494297918547,  0.00000000000000 ]
    - # atom 8
      - [  0.00218955137399,  0.00000000000000 ]
      - [  0.00000030909621,  0.00000000000000 ]
      - [  0.30494297918547,  0.00000000000000 ]
    - # atom 9
      - [  0.00105349055992,  0.00000000000000 ]
      - [  0.00000014805348,  0.00000000000000 ]
      - [  0.14607604163867,  0.00000000000000 ]
    - # atom 10
      - [  0.00105349055992,  0.00000000000000 ]
      - [  0.00000014805348,  0.00000000000000 ]
      - [  0.14607604163867,  0.00000000000000 ]
    - # atom 11
      - [  0.00105349055992,  0.00000000000000 ]
      - [  0.00000014805348,  0.00000000000000 ]
      - [  0.14607604163867,  0.00000000000000 ]
    - # atom 12
      - [  0.00105349055992,  0.00000000000000 ]
      - [  0.00000014805348,  0.00000000000000 ]
      - [  0.14607604163867,  0.00000000000000 ]
    - # atom 13
      - [  0.00105075035059,  0.00000000000000 ]
      - [  0.00000014806081,  0.00000000000000 ]
      - [  0.14604425942604,  0.00000000000000 ]
    - # atom 14
      - [  0.00105075035059,  0.00000000000000 ]
      - [  0.00000014806081,  0.00000000000000 ]
      - [  0.14604425942604,  0.00000000000000 ]
    - # atom 15
      - [  0.00105075035059,  0.00000000000000 ]
      - [  0.00000014806081,  0.00000000000000 ]
      - [  0.14604425942604,  0.00000000000000 ]
    - # atom 16
      - [  0.00105075035059,  0.00000000000000 ]
      - [  0.00000014806081,  0.00000000000000 ]
      - [  0.14604425942604,  0.00000000000000 ]
    - # atom 17
      - [  0.00103955939647,  0.00000000000000 ]
      - [  0.00000014803863,  0.00000000000000 ]
      - [  0.14608574531227,  0.00000000000000 ]
    - # atom 18
      - [  0.00103955939647,  0.00000000000000 ]
      - [  0.00000014803863,  0.00000000000000 ]
      - [  0.14608574531227,  0.00000000000000 ]
    - # atom 19
      - [  0.00103955939647,  0.00000000000000 ]
      - [  0.00000014803863,  0.00000000000000 ]
      - [  0.14608574531227,  0.00000000000000 ]
    - # atom 20
      - [  0.00103955939647,  0.00000000000000 ]
      - [  0.00000014803863,  0.00000000000000 ]
      - [  0.14608574531226,  0.00000000000000 ]
  - # 3
    frequency:   -0.0004953204
    eigenvector:
    - # atom 1
      - [  0.00000000000000,  0.00000000000000 ]
      - [  0.30493935036575,  0.00000000000000 ]
      - [ -0.00000030909023,  0.00000000000000 ]
    - # atom 2
      - [ -0.00000000000000,  0.00000000000000 ]
      - [  0.30493935036574,  0.00000000000000 ]
      - [ -0.00000030909023,  0.00000000000000 ]
    - # atom 3
      - [ -0.00000000000000,  0.00000000000000 ]
      - [  0.30493935036575,  0.00000000000000 ]
      - [ -0.00000030909023,  0.00000000000000 ]
    - # atom 4
      - [ -0.00000000000000,  0.00000000000000 ]
      - [  0.30493935036574,  0.00000000000000 ]
      - [ -0.00000030909023,  0.00000000000000 ]
    - # atom 5
      - [ -0.00000000001985,  0.00000000000000 ]
      - [  0.30496215606010,  0.00000000000000 ]
      - [ -0.00000030909240,  0.00000000000000 ]
    - # atom 6
      - [ -0.00000000001985,  0.00000000000000 ]
      - [  0.30496215606009,  0.00000000000000 ]
      - [ -0.00000030909240,  0.00000000000000 ]
    - # atom 7
      - [ -0.00000000001985,  0.00000000000000 ]
      - [  0.30496215606009,  0.00000000000000 ]
      - [ -0.00000030909240,  0.00000000000000 ]
    - # atom 8
      - [ -0.00000000001984,  0.00000000000000 ]
      - [  0.30496215606009,  0.00000000000000 ]
      - [ -0.00000030909240,  0.00000000000000 ]
    - # atom 9
      - [ -0.00000000001474,  0.00000000000000 ]
      - [  0.14607332074007,  0.00000000000000 ]
      - [ -0.00000014806377,  0.00000000000000 ]
    - # atom 10
      - [ -0.00000000001475,  0.00000000000000 ]
      - [  0.14607332074007,  0.00000000000000 ]
      - [ -0.00000014806376,  0.00000000000000 ]
    - # atom 11
      - [ -0.00000000001474,  0.00000000000000 ]
      - [  0.14607332074007,  0.00000000000000 ]
      - [ -0.00000014806376,  0.00000000000000 ]
    - # atom 12
      - [ -0.00000000001474,  0.00000000000000 ]
      - [  0.14607332074007,  0.00000000000000 ]
      - [ -0.00000014806377,  0.00000000000000 ]
    - # atom 13
      - [ -0.00000000001151,  0.00000000000000 ]
      - [  0.14608055332444,  0.00000000000000 ]
      - [ -0.00000014803161,  0.00000000000000 ]
    - # atom 14
      - [ -0.00000000001151,  0.00000000000000 ]
      - [  0.14608055332444,  0.00000000000000 ]
      - [ -0.00000014803161,  0.00000000000000 ]
    - # atom 15
      - [ -0.00000000001151,  0.00000000000000 ]
      - [  0.14608055332443,  0.00000000000000 ]
      - [ -0.00000014803161,  0.00000000000000 ]
    - # atom 16
      - [ -0.00000000001151,  0.00000000000000 ]
      - [  0.14608055332444,  0.00000000000000 ]
      - [ -0.00000014803161,  0.00000000000000 ]
    - # atom 17
      - [ -0.00000000000019,  0.00000000000000 ]
      - [  0.14605866245394,  0.00000000000000 ]
      - [ -0.00000014807362,  0.00000000000000 ]
    - # atom 18
      - [ -0.00000000000019,  0.00000000000000 ]
      - [  0.14605866245394,  0.00000000000000 ]
      - [ -0.00000014807362,  0.00000000000000 ]
    - # atom 19
      - [ -0.00000000000019,  0.00000000000000 ]
      - [  0.14605866245394,  0.00000000000000 ]
      - [ -0.00000014807362,  0.00000000000000 ]
    - # atom 20
      - [ -0.00000000000019,  0.00000000000000 ]
      - [  0.14605866245394,  0.00000000000000 ]
      - [ -0.00000014807362,  0.00000000000000 ]
  - # 4
    frequency:    2.3916521781
    eigenvector:
    - # atom 1
      - [ -0.08088801542459,  0.00000000000000 ]
      - [  0.00000000000002,  0.00000000000000 ]
      - [  0.30124132131715,  0.00000000000000 ]
    - # atom 2
      - [  0.08088801542459,  0.00000000000000 ]
      - [  0.00000000000002,  0.00000000000000 ]
      - [ -0.30124132131715,  0.00000000000000 ]
    - # atom 3
      - [  0.08088801542458,  0.00000000000000 ]
      - [ -0.00000000000002,  0.00000000000000 ]
      - [ -0.30124132131716,  0.00000000000000 ]
    - # atom 4
      - [ -0.08088801542458,  0.00000000000000 ]
      - [ -0.00000000000002,  0.00000000000000 ]
      - [  0.30124132131716,  0.00000000000000 ]
    - # atom 5
      - [ -0.05526629765935,  0.00000000000000 ]
      - [ -0.00000000000001,  0.00000000000000 ]
      - [  0.33343816447902,  0.00000000000000 ]
    - # atom 6
      - [  0.05526629765934,  0.00000000000000 ]
      - [ -0.00000000000001,  0.00000000000000 ]
      - [ -0.33343816447902,  0.00000000000000 ]
    - # atom 7
      - [  0.05526629765934,  0.00000000000000 ]
      - [  0.00000000000001,  0.00000000000000 ]
      - [ -0.33343816447901,  0.00000000000000 ]
    - # atom 8
      - [ -0.05526629765934,  0.00000000000000 ]
      - [  0.00000000000002,  0.00000000000000 ]
      - [  0.33343816447901,  0.00000000000000 ]
    - # atom 9
      - [ -0.02155458776733,  0.00000000000000 ]
      - [  0.00000000000001,  0.00000000000000 ]
      - [  0.13344567972504,  0.00000000000000 ]
    - # atom 10
      - [  0.02155458776733,  0.00000000000000 ]
      - [  0.00000000000001,  0.00000000000000 ]
      - [ -0.13344567972504,  0.00000000000000 ]
    - # atom 11
      - [  0.02155458776733,  0.00000000000000 ]
      - [ -0.00000000000001,  0.00000000000000 ]
      - [ -0.13344567972504,  0.00000000000000 ]
    - # atom 12
      - [ -0.02155458776733,  0.00000000000000 ]
      - [ -0.00000000000001,  0.00000000000000 ]
      - [  0.13344567972504,  0.00000000000000 ]
    - # atom 13
      - [ -0.00101334159311,  0.00000000000000 ]
      - [ -0.00000000000001,  0.00000000000000 ]
      - [  0.02430545356170,  0.00000000000000 ]
    - # atom 14
      - [  0.00101334159311,  0.00000000000000 ]
      - [ -0.00000000000001,  0.00000000000000 ]
      - [ -0.02430545356170,  0.00000000000000 ]
    - # atom 15
      - [  0.00101334159311,  0.00000000000000 ]
      - [  0.00000000000001,  0.00000000000000 ]
      - [ -0.02430545356170,  0.00000000000000 ]
    - # atom 16
      - [ -0.00101334159311,  0.00000000000000 ]
      - [  0.00000000000001,  0.00000000000000 ]
      - [  0.02430545356170,  0.00000000000000 ]
    - # atom 17
      - [  0.02838034414698,  0.00000000000000 ]
      - [  0.00000000000000,  0.00000000000000 ]
      - [ -0.13713441050531,  0.00000000000000 ]
    - # atom 18
      - [ -0.02838034414698,  0.00000000000000 ]
      - [  0.00000000000000,  0.00000000000000 ]
      - [  0.13713441050531,  0.00000000000000 ]
    - # atom 19
      - [ -0.02838034414698,  0.00000000000000 ]
      - [ -0.00000000000000,  0.00000000000000 ]
      - [  0.13713441050531,  0.00000000000000 ]
    - # atom 20
      - [  0.02838034414698,  0.00000000000000 ]
      - [ -0.00000000000000,  0.00000000000000 ]
      - [ -0.13713441050531,  0.00000000000000 ]
  - # 5
    frequency:    2.6083295454
    eigenvector:
    - # atom 1
      - [ -0.00000000000000,  0.00000000000000 ]
      - [ -0.36154156558128,  0.00000000000000 ]
      - [  0.00000000000001,  0.00000000000000 ]
    - # atom 2
      - [  0.00000000000001,  0.00000000000000 ]
      - [ -0.36154156558124,  0.00000000000000 ]
      - [ -0.00000000000002,  0.00000000000000 ]
    - # atom 3
      - [  0.00000000000000,  0.00000000000000 ]
      - [  0.36154156558126,  0.00000000000000 ]
      - [ -0.00000000000001,  0.00000000000000 ]
    - # atom 4
      - [ -0.00000000000000,  0.00000000000000 ]
      - [  0.36154156558125,  0.00000000000000 ]
      - [  0.00000000000002,  0.00000000000000 ]
    - # atom 5
      - [ -0.00000000000001,  0.00000000000000 ]
      - [  0.27635598081412,  0.00000000000000 ]
      - [  0.00000000000002,  0.00000000000000 ]
    - # atom 6
      - [  0.00000000000000,  0.00000000000000 ]
      - [  0.27635598081413,  0.00000000000000 ]
      - [ -0.00000000000002,  0.00000000000000 ]
    - # atom 7
      - [  0.00000000000000,  0.00000000000000 ]
      - [ -0.27635598081412,  0.00000000000000 ]
      - [ -0.00000000000002,  0.00000000000000 ]
    - # atom 8
      - [  0.00000000000000,  0.00000000000000 ]
      - [ -0.27635598081413,  0.00000000000000 ]
      - [  0.00000000000001,  0.00000000000000 ]
    - # atom 9
      - [ -0.00000000000000,  0.00000000000000 ]
      - [ -0.12685171305722,  0.00000000000000 ]
      - [  0.00000000000001,  0.00000000000000 ]
    - # atom 10
      - [  0.00000000000000,  0.00000000000000 ]
      - [ -0.12685171305721,  0.00000000000000 ]
      - [ -0.00000000000001,  0.00000000000000 ]
    - # atom 11
      - [ -0.00000000000000,  0.00000000000000 ]
      - [  0.12685171305721,  0.00000000000000 ]
      - [ -0.00000000000001,  0.00000000000000 ]
    - # atom 12
      - [ -0.00000000000000,  0.00000000000000 ]
      - [  0.12685171305721,  0.00000000000000 ]
      - [  0.00000000000001,  0.00000000000000 ]
    - # atom 13
      - [ -0.00000000000000,  0.00000000000000 ]
      - [  0.15698501504485,  0.00000000000000 ]
      - [  0.00000000000000,  0.00000000000000 ]
    - # atom 14
      - [ -0.00000000000000,  0.00000000000000 ]
      - [  0.15698501504485,  0.00000000000000 ]
      - [ -0.00000000000000,  0.00000000000000 ]
    - # atom 15
      - [  0.00000000000000,  0.00000000000000 ]
      - [ -0.15698501504484,  0.00000000000000 ]
      - [ -0.00000000000000,  0.00000000000000 ]
    - # atom 16
      - [  0.00000000000000,  0.00000000000000 ]
      - [ -0.15698501504486,  0.00000000000000 ]
      - [ -0.00000000000000,  0.00000000000000 ]
    - # atom 17
      - [  0.00000000000000,  0.00000000000000 ]
      - [ -0.04668421758085,  0.00000000000000 ]
      - [ -0.00000000000001,  0.00000000000000 ]
    - # atom 18
      - [ -0.00000000000000,  0.00000000000000 ]
      - [ -0.04668421758086,  0.00000000000000 ]
      - [  0.00000000000001,  0.00000000000000 ]
    - # atom 19
      - [ -0.00000000000000,  0.00000000000000 ]
      - [  0.04668421758085,  0.00000000000000 ]
      - [  0.00000000000001,  0.00000000000000 ]
    - # atom 20
      - [  0.00000000000000,  0.00000000000000 ]
      - [  0.04668421758085,  0.00000000000000 ]
      - [ -0.00000000000001,  0.00000000000000 ]
  - # 6
    frequency:    2.8360281436
    eigenvector:
    - # atom 1
      - [  0.00000000000000,  0.00000000000000 ]
      - [  0.43091035699762,  0.00000000000000 ]
      - [  0.00000000000000,  0.00000000000000 ]
    - # atom 2
      - [ -0.00000000000000,  0.00000000000000 ]
      - [ -0.43091035699764,  0.00000000000000 ]
      - [  0.00000000000000,  0.00000000000000 ]
    - # atom 3
      - [  0.00000000000000,  0.00000000000000 ]
      - [ -0.43091035699761,  0.00000000000000 ]
      - [ -0.00000000000000,  0.00000000000000 ]
    - # atom 4
      - [ -0.00000000000000,  0.00000000000000 ]
      - [  0.43091035699763,  0.00000000000000 ]
      - [ -0.00000000000001,  0.00000000000000 ]
    - # atom 5
      - [  0.00000000000000,  0.00000000000000 ]
      - [  0.13970637392647,  0.00000000000000 ]
      - [ -0.00000000000001,  0.00000000000000 ]
    - # atom 6
      - [ -0.00000000000000,  0.00000000000000 ]
      - [ -0.13970637392645,  0.00000000000000 ]
      - [ -0.00000000000000,  0.00000000000000 ]
    - # atom 7
      - [ -0.00000000000000,  0.00000000000000 ]
      - [ -0.13970637392647,  0.00000000000000 ]
      - [  0.00000000000000,  0.00000000000000 ]
    - # atom 8
      - [ -0.00000000000000,  0.00000000000000 ]
      - [  0.13970637392645,  0.00000000000000 ]
      - [  0.00000000000000,  0.00000000000000 ]
    - # atom 9
      - [ -0.00000000000000,  0.00000000000000 ]
      - [  0.06761869219639,  0.00000000000000 ]
      - [  0.00000000000000,  0.00000000000000 ]
    - # atom 10
      - [ -0.00000000000000,  0.00000000000000 ]
      - [ -0.06761869219640,  0.00000000000000 ]
      - [  0.00000000000000,  0.00000000000000 ]
    - # atom 11
      - [  0.00000000000000,  0.00000000000000 ]
      - [ -0.06761869219639,  0.00000000000000 ]
      - [ -0.00000000000000,  0.00000000000000 ]
    - # atom 12
      - [  0.00000000000000,  0.00000000000000 ]
      - [  0.06761869219640,  0.00000000000000 ]
      - [ -0.00000000000000,  0.00000000000000 ]
    - # atom 13
      - [ -0.00000000000000,  0.00000000000000 ]
      - [  0.17628533161914,  0.00000000000000 ]
      - [ -0.00000000000000,  0.00000000000000 ]
    - # atom 14
      - [  0.00000000000000,  0.00000000000000 ]
      - [ -0.17628533161913,  0.00000000000000 ]
      - [ -0.00000000000000,  0.00000000000000 ]
    - # atom 15
      - [ -0.00000000000000,  0.00000000000000 ]
      - [ -0.17628533161914,  0.00000000000000 ]
      - [ -0.00000000000000,  0.00000000000000 ]
    - # atom 16
      - [ -0.00000000000000,  0.00000000000000 ]
      - [  0.17628533161914,  0.00000000000000 ]
      - [  0.00000000000000,  0.00000000000000 ]
    - # atom 17
      - [ -0.00000000000000,  0.00000000000000 ]
      - [ -0.09565347687397,  0.00000000000000 ]
      - [  0.00000000000000,  0.00000000000000 ]
    - # atom 18
      - [ -0.00000000000000,  0.00000000000000 ]
      - [  0.09565347687397,  0.00000000000000 ]
      - [  0.00000000000000,  0.00000000000000 ]
    - # atom 19
      - [  0.00000000000000,  0.00000000000000 ]
      - [  0.09565347687397,  0.00000000000000 ]
      - [ -0.00000000000000,  0.00000000000000 ]
    - # atom 20
      - [ -0.00000000000000,  0.00000000000000 ]
      - [ -0.09565347687397,  0.00000000000000 ]
      - [ -0.00000000000000,  0.00000000000000 ]
  - # 7
    frequency:    2.9778151562
    eigenvector:
    - # atom 1
      - [  0.18111273791442,  0.00000000000000 ]
      - [ -0.00000000000001,  0.00000000000000 ]
      - [  0.26234771120108,  0.00000000000000 ]
    - # atom 2
      - [ -0.18111273791441,  0.00000000000000 ]
      - [  0.00000000000000,  0.00000000000000 ]
      - [ -0.26234771120108,  0.00000000000000 ]
    - # atom 3
      - [  0.18111273791442,  0.00000000000000 ]
      - [ -0.00000000000001,  0.00000000000000 ]
      - [  0.26234771120107,  0.00000000000000 ]
    - # atom 4
      - [ -0.18111273791442,  0.00000000000000 ]
      - [  0.00000000000001,  0.00000000000000 ]
      - [ -0.26234771120107,  0.00000000000000 ]
    - # atom 5
      - [  0.25174543849204,  0.00000000000000 ]
      - [ -0.00000000000001,  0.00000000000000 ]
      - [ -0.24438917288156,  0.00000000000000 ]
    - # atom 6
      - [ -0.25174543849204,  0.00000000000000 ]
      - [  0.00000000000002,  0.00000000000000 ]
      - [  0.24438917288157,  0.00000000000000 ]
    - # atom 7
      - [  0.25174543849205,  0.00000000000000 ]
      - [  0.00000000000001,  0.00000000000000 ]
      - [ -0.24438917288157,  0.00000000000000 ]
    - # atom 8
      - [ -0.25174543849204,  0.00000000000000 ]
      - [ -0.00000000000001,  0.00000000000000 ]
      - [  0.24438917288158,  0.00000000000000 ]
    - # atom 9
      - [  0.02793443212086,  0.00000000000000 ]
      - [ -0.00000000000001,  0.00000000000000 ]
      - [  0.11458270530013,  0.00000000000000 ]
    - # atom 10
      - [ -0.02793443212086,  0.00000000000000 ]
      - [  0.00000000000000,  0.00000000000000 ]
      - [ -0.11458270530013,  0.00000000000000 ]
    - # atom 11
      - [  0.02793443212086,  0.00000000000000 ]
      - [  0.00000000000001,  0.00000000000000 ]
      - [  0.11458270530013,  0.00000000000000 ]
    - # atom 12
      - [ -0.02793443212086,  0.00000000000000 ]
      - [ -0.00000000000000,  0.00000000000000 ]
      - [ -0.11458270530012,  0.00000000000000 ]
    - # atom 13
      - [ -0.08739367666840,  0.00000000000000 ]
      - [  0.00000000000001,  0.00000000000000 ]
      - [ -0.05477632843272,  0.00000000000000 ]
    - # atom 14
      - [  0.08739367666840,  0.00000000000000 ]
      - [ -0.00000000000000,  0.00000000000000 ]
      - [  0.05477632843272,  0.00000000000000 ]
    - # atom 15
      - [ -0.08739367666840,  0.00000000000000 ]
      - [  0.00000000000000,  0.00000000000000 ]
      - [ -0.05477632843272,  0.00000000000000 ]
    - # atom 16
      - [  0.08739367666840,  0.00000000000000 ]
      - [ -0.00000000000000,  0.00000000000000 ]
      - [  0.05477632843272,  0.00000000000000 ]
    - # atom 17
      - [  0.01583599772583,  0.00000000000000 ]
      - [  0.00000000000000,  0.00000000000000 ]
      - [ -0.02171663913776,  0.00000000000000 ]
    - # atom 18
      - [ -0.01583599772583,  0.00000000000000 ]
      - [ -0.00000000000000,  0.00000000000000 ]
      - [  0.02171663913776,  0.00000000000000 ]
    - # atom 19
      - [  0.01583599772583,  0.00000000000000 ]
      - [ -0.00000000000000,  0.00000000000000 ]
      - [ -0.02171663913775,  0.00000000000000 ]
    - # atom 20
      - [ -0.01583599772583,  0.00000000000000 ]
      - [  0.00000000000000,  0.00000000000000 ]
      - [  0.02171663913776,  0.00000000000000 ]
  - # 8
    frequency:    3.0276669849
    eigenvector:
    - # atom 1
      - [  0.00000000000000,  0.00000000000000 ]
      - [ -0.46090400131059,  0.00000000000000 ]
      - [ -0.00000000000002,  0.00000000000000 ]
    - # atom 2
      - [  0.00000000000001,  0.00000000000000 ]
      - [  0.46090400131060,  0.00000000000000 ]
      - [ -0.00000000000001,  0.00000000000000 ]
    - # atom 3
      - [ -0.00000000000000,  0.00000000000000 ]
      - [ -0.46090400131061,  0.00000000000000 ]
      - [  0.00000000000001,  0.00000000000000 ]
    - # atom 4
      - [ -0.00000000000000,  0.00000000000000 ]
      - [  0.46090400131060,  0.00000000000000 ]
      - [  0.00000000000002,  0.00000000000000 ]
    - # atom 5
      - [ -0.00000000000001,  0.00000000000000 ]
      - [  0.01738385810305,  0.00000000000000 ]
      - [  0.00000000000002,  0.00000000000000 ]
    - # atom 6
      - [ -0.00000000000001,  0.00000000000000 ]
      - [ -0.01738385810306,  0.00000000000000 ]
      - [  0.00000000000001,  0.00000000000000 ]
    - # atom 7
      - [  0.00000000000000,  0.00000000000000 ]
      - [  0.01738385810306,  0.00000000000000 ]
      - [ -0.00000000000001,  0.00000000000000 ]
    - # atom 8
      - [  0.00000000000001,  0.00000000000000 ]
      - [ -0.01738385810304,  0.00000000000000 ]
      - [ -0.00000000000002,  0.00000000000000 ]
    - # atom 9
      - [  0.00000000000000,  0.00000000000000 ]
      - [ -0.02508045962599,  0.00000000000000 ]
      - [ -0.00000000000001,  0.00000000000000 ]
    - # atom 10
      - [  0.00000000000000,  0.00000000000000 ]
      - [  0.02508045962600,  0.00000000000000 ]
      - [ -0.00000000000000,  0.00000000000000 ]
    - # atom 11
      - [ -0.00000000000000,  0.00000000000000 ]
      - [ -0.02508045962600,  0.00000000000000 ]
      - [  0.00000000000000,  0.00000000000000 ]
    - # atom 12
      - [ -0.00000000000000,  0.00000000000000 ]
      - [  0.02508045962600,  0.00000000000000 ]
      - [  0.00000000000001,  0.00000000000000 ]
    - # atom 13
      - [ -0.00000000000000,  0.00000000000000 ]
      - [  0.19112127971342,  0.00000000000000 ]
      - [  0.00000000000001,  0.00000000000000 ]
    - # atom 14
      - [ -0.00000000000000,  0.00000000000000 ]
      - [ -0.19112127971342,  0.00000000000000 ]
      - [  0.00000000000000,  0.00000000000000 ]
    - # atom 15
      - [  0.00000000000000,  0.00000000000000 ]
      - [  0.19112127971342,  0.00000000000000 ]
      - [ -0.00000000000000,  0.00000000000000 ]
    - # atom 16
      - [ -0.00000000000000,  0.00000000000000 ]
      - [ -0.19112127971342,  0.00000000000000 ]
      - [ -0.00000000000001,  0.00000000000000 ]
    - # atom 17
      - [  0.00000000000000,  0.00000000000000 ]
      - [  0.01043695544618,  0.00000000000000 ]
      - [ -0.00000000000000,  0.00000000000000 ]
    - # atom 18
      - [  0.00000000000000,  0.00000000000000 ]
      - [ -0.01043695544618,  0.00000000000000 ]
      - [ -0.00000000000000,  0.00000000000000 ]
    - # atom 19
      - [ -0.00000000000000,  0.00000000000000 ]
      - [  0.01043695544618,  0.00000000000000 ]
      - [  0.00000000000001,  0.00000000000000 ]
    - # atom 20
      - [ -0.00000000000000,  0.00000000000000 ]
      - [ -0.01043695544618,  0.00000000000000 ]
      - [  0.00000000000000,  0.00000000000000 ]
  - # 9
    frequency:    3.0950087330
    eigenvector:
    - # atom 1
      - [  0.09404845064956,  0.00000000000000 ]
      - [  0.00000000000002,  0.00000000000000 ]
      - [ -0.27966206328304,  0.00000000000000 ]
    - # atom 2
      - [  0.09404845064956,  0.00000000000000 ]
      - [ -0.00000000000001,  0.00000000000000 ]
      - [ -0.27966206328303,  0.00000000000000 ]
    - # atom 3
      - [ -0.09404845064956,  0.00000000000000 ]
      - [  0.00000000000003,  0.00000000000000 ]
      - [  0.27966206328304,  0.00000000000000 ]
    - # atom 4
      - [ -0.09404845064956,  0.00000000000000 ]
      - [ -0.00000000000004,  0.00000000000000 ]
      - [  0.27966206328304,  0.00000000000000 ]
    - # atom 5
      - [ -0.17699074412253,  0.00000000000000 ]
      - [  0.00000000000004,  0.00000000000000 ]
      - [  0.28947784456706,  0.00000000000000 ]
    - # atom 6
      - [ -0.17699074412253,  0.00000000000000 ]
      - [ -0.00000000000004,  0.00000000000000 ]
      - [  0.28947784456705,  0.00000000000000 ]
    - # atom 7
      - [  0.17699074412253,  0.00000000000000 ]
      - [ -0.00000000000003,  0.00000000000000 ]
      - [ -0.28947784456705,  0.00000000000000 ]
    - # atom 8
      - [  0.17699074412253,  0.00000000000000 ]
      - [  0.00000000000004,  0.00000000000000 ]
      - [ -0.28947784456705,  0.00000000000000 ]
    - # atom 9
      - [  0.06816949030365,  0.00000000000000 ]
      - [  0.00000000000001,  0.00000000000000 ]
      - [ -0.11826628634942,  0.00000000000000 ]
    - # atom 10
      - [  0.06816949030365,  0.00000000000000 ]
      - [ -0.00000000000001,  0.00000000000000 ]
      - [ -0.11826628634942,  0.00000000000000 ]
    - # atom 11
      - [ -0.06816949030365,  0.00000000000000 ]
      - [ -0.00000000000001,  0.00000000000000 ]
      - [  0.11826628634942,  0.00000000000000 ]
    - # atom 12
      - [ -0.06816949030365,  0.00000000000000 ]
      - [  0.00000000000001,  0.00000000000000 ]
      - [  0.11826628634942,  0.00000000000000 ]
    - # atom 13
      - [ -0.05855881006737,  0.00000000000000 ]
      - [ -0.00000000000002,  0.00000000000000 ]
      - [  0.12851668005729,  0.00000000000000 ]
    - # atom 14
      - [ -0.05855881006737,  0.00000000000000 ]
      - [  0.00000000000001,  0.00000000000000 ]
      - [  0.12851668005729,  0.00000000000000 ]
    - # atom 15
      - [  0.05855881006737,  0.00000000000000 ]
      - [ -0.00000000000000,  0.00000000000000 ]
      - [ -0.12851668005729,  0.00000000000000 ]
    - # atom 16
      - [  0.05855881006737,  0.00000000000000 ]
      - [  0.00000000000001,  0.00000000000000 ]
      - [ -0.12851668005729,  0.00000000000000 ]
    - # atom 17
      - [  0.03625921289584,  0.00000000000000 ]
      - [ -0.00000000000001,  0.00000000000000 ]
      - [ -0.08903076763700,  0.00000000000000 ]
    - # atom 18
      - [  0.03625921289584,  0.00000000000000 ]
      - [  0.00000000000001,  0.00000000000000 ]
      - [ -0.08903076763700,  0.00000000000000 ]
    - # atom 19
      - [ -0.03625921289584,  0.00000000000000 ]
      - [  0.00000000000001,  0.00000000000000 ]
      - [  0.08903076763700,  0.00000000000000 ]
    - # atom 20
      - [ -0.03625921289584,  0.00000000000000 ]
      - [ -0.00000000000001,  0.00000000000000 ]