25440
Time=700001.00000886 pbc="T T T" Lattice="203.28868118 0.00000000 0.00000000 0.00000000 36.87600000 0.00000000 0.00000000 0.00000000 37.25814492" energy=-177911.99026108 virial="2250.26207492 -538.55865244 -738.04982405 -538.55865244 937.36380223 2799.35441375 -738.04982405 2799.35441375 541.76480755" stress="0.00998678 -0.00190897 -0.00265690 -0.00190897 0.00530208 0.01004175 -0.00265690 0.01004175 0.00386560" Properties=species:S:1:pos:R:3
Ga 109.80873884 0.27282089 34.19602081
Ga 109.97697047 1.09251747 19.58931647
Ga 110.47863347 35.92746299 27.01819224
Ga 109.83830352 36.68896739 12.04468114
Ga 109.58375029 1.60250664 4.61449773
Ga 110.03240885 1.63894105 37.17744251
Ga 110.12475031 36.19524953 22.46491614
Ga 110.08561054 0.47216263 29.76142745
Ga 110.17237582 1.28407968 14.94063316
Ga 110.06956441 36.76500355 7.51939778
Ga 107.80370812 35.66406808 31.97857318
Ga 108.08138929 36.62606137 17.38071664
Ga 108.16822758 0.51373370 24.91049953
Ga 108.01533806 1.59207355 9.74030783
Ga 107.74130633 0.17760795 2.06235658
Ga 107.58930787 3.08479369 34.16610319
Ga 107.61147575 1.53546168 22.10236512
Ga 107.55707905 1.88310792 27.79855340
Ga 107.36079142 0.17404313 14.37703843
Ga 107.39825311 0.04887306 7.19000987
Ga 114.65898646 0.07917801 0.65077513
Ga 114.80532963 0.92738030 22.95121806
Ga 114.74928936 35.71255071 30.56102721
Ga 114.79882367 36.60691196 15.48288682
Ga 114.68818247 1.48861696 8.08817240
Ga 114.77250739 0.37581503 33.20731791
Ga 114.68194120 1.05944608 18.30870791
Ga 115.00560103 35.95942423 25.80656430
Ga 114.63915376 36.81798395 10.83505542
Ga 114.63444025 1.56025705 3.36702894
Ga 112.89044856 1.73746589 35.65635623
Ga 112.99862430 36.20680839 20.74798173
Ga 113.11569436 0.62440455 28.25164382
Ga 112.81841981 1.25642551 13.35562728
Ga 112.80086848 0.05041131 5.75977137
Ga 111.82044416 35.77297331 32.05706129
Ga 112.01155035 36.39169975 17.27705119
Ga 112.15811207 0.65036138 24.56133146
Ga 111.79902539 1.28158395 9.89406140
Ga 111.80691093 0.07563929 2.33072944
Ga 119.36751122 1.73032394 34.03557175
Ga 119.57823565 36.23669191 19.02564824
Ga 119.53770656 0.64433187 26.55615381
Ga 119.39574411 1.14512308 11.55661793
Ga 119.33686887 0.05828529 4.23415926
Ga 119.42400519 0.20537585 36.72040246
Ga 119.55906180 0.75103137 21.86171950
Ga 119.66570637 35.77371807 29.39905936
Ga 119.47103624 36.42546386 14.36609922
Ga 119.40627697 1.46453183 6.93942101
Ga 117.68389237 0.35333444 31.70084563
Ga 117.50822444 1.07395370 16.75914942
Ga 117.68894658 36.00411956 24.30053921
Ga 117.52230208 36.61931661 9.28177282
Ga 117.45969615 1.66599092 1.94586370
Ga 116.53947479 1.74626766 35.82355203
Ga 116.63351678 36.31759218 20.66767558
Ga 116.62171431 0.58124816 28.32536157
Ga 116.55152808 1.32246873 13.11744985
Ga 116.54933455 36.79111271 5.74048757
Ga 124.12596222 1.68675634 0.16811956
Ga 124.23690670 36.08191087 22.55220430
Ga 124.13755468 0.47770620 30.05430892
Ga 124.18550561 1.05815000 15.11827380
Ga 124.04450817 36.68150241 7.77390875
Ga 124.21826372 1.85537797 32.79478861
Ga 124.36965741 36.37858475 17.94409382
Ga 124.18260676 0.59824800 25.26577616
Ga 124.19642531 1.32541932 10.48577414
Ga 124.06272609 0.15389921 2.97202010
Ga 122.36489762 0.22614298 35.10743035
Ga 122.41248028 0.88495962 20.26607484
Ga 122.42918698 35.98933344 27.64823801
Ga 122.26523958 36.58819801 12.87498732
Ga 122.22116853 1.48326175 5.55839353
Ga 121.38001407 0.35587130 31.72336098
Ga 121.43338634 1.14911473 16.64820193
Ga 121.26800416 36.00091664 24.26555083
Ga 121.27646050 36.60233731 9.34249917
Ga 121.11339021 1.69526039 1.83553790
Ga 128.92535058 0.28776337 33.63704438
Ga 128.87519771 0.95760067 18.67292775
Ga 128.94183420 35.94726149 26.04219670
Ga 128.81321079 36.56665523 11.11227661
Ga 128.91759646 1.46511548 3.71995615
Ga 128.89224805 1.73311342 36.37462792
Ga 129.00767442 36.08536154 21.41999775
Ga 128.96399190 0.36690392 28.76766498
Ga 128.94898890 1.11568639 13.90345944
Ga 128.90839258 36.65329763 6.54300015
Ga 127.08147642 1.89476825 31.16077926
Ga 127.14201057 36.35833966 16.25038973
Ga 127.10728229 0.74490323 23.75413573
Ga 127.01004484 1.17077023 8.74299222
Ga 126.96538143 0.14026560 1.42263251
Ga 125.96468819 0.25026395 35.16580681
Ga 126.00253886 0.87082004 20.28715974
Ga 126.06989153 35.95331536 27.61504129
Ga 126.10174925 36.47202047 12.64239544
Ga 125.99530782 1.48503167 5.27676514
Ga 133.67995030 0.06155458 37.03864148
Ga 133.62446324 0.82701522 22.07490709
Ga 133.59350205 1.93253592 29.59317604
Ga 133.68068644 36.32982568 14.57161753
Ga 133.74298118 1.31552850 7.18770498
Ga 133.68838880 0.31806942 32.33420722
Ga 133.70992396 0.78462506 17.37792299
Ga 133.64490714 35.92880304 24.86451097
Ga 133.58010034 36.62689682 10.11668409
Ga 133.74384979 1.45649252 2.51739734
Ga 131.83166439 1.70183882 34.69884757
Ga 131.85705848 36.14829432 19.77608114
Ga 131.75530382 0.59250548 27.22288123
Ga 131.75192252 1.20546874 12.33567846
Ga 131.73495709 36.87462382 4.94664018
Ga 130.75244112 1.91042955 31.11576471
Ga 130.69940009 36.22578058 16.31879504
Ga 130.74995662 0.74486228 23.74550336
Ga 130.76136781 1.22324454 8.69405952
Ga 130.82507628 0.07199989 1.25723173
Ga 138.23676829 1.70858249 33.03978470
Ga 138.37120000 36.21243506 18.21458560
Ga 138.23023206 0.60622239 25.49088677
Ga 138.30200292 1.18638443 10.77541062
Ga 138.34963180 0.13088571 3.19421009
Ga 138.40771716 0.07794740 35.88721534
Ga 138.40055255 0.75739814 20.87639751
Ga 138.39291142 1.99594271 28.23086853
Ga 138.27416995 36.29816709 13.46777677
Ga 138.33241604 1.39238979 6.17332822
Ga 136.56636348 1.56923029 0.85404776
Ga 136.59683448 35.94672175 23.17995291
Ga 136.62181339 0.31088035 30.72027009
Ga 136.63641098 0.99564881 15.81594704
Ga 136.49792165 36.55945756 8.42151126
Ga 135.42679101 1.74603579 34.68638132
Ga 135.53203648 36.16955857 19.74576992
Ga 135.42242551 0.53606854 27.26207596
Ga 135.60201986 1.13380064 12.15532957
Ga 135.54350940 36.71213788 4.88297262
Ga 143.07765936 1.67486184 36.54859481
Ga 142.95060415 36.03942707 21.67186962
Ga 143.03883610 0.37968739 29.21765683
Ga 143.11294736 1.06257767 14.20781058
Ga 143.01725475 36.81625659 6.68494077
Ga 143.16681826 1.82464035 31.95841312
Ga 143.03918962 36.19767972 16.85937459
Ga 143.06962080 0.64090754 24.44375750
Ga 143.01386844 1.19034773 9.50515387
Ga 143.16690967 0.07466681 1.97138405
Ga 141.22228904 0.29323681 34.24148251
Ga 141.27162409 0.83357023 19.35375896
Ga 141.31721812 1.97528206 26.72372014
Ga 141.14810336 36.41642452 11.97068732
Ga 141.34158565 1.49739547 4.33797886
Ga 140.19025806 1.61052276 1.00379459
Ga 140.19391827 35.97432953 23.31257363
Ga 140.17065680 0.36955861 30.65672520
Ga 140.17363112 0.98868176 15.82935093
Ga 140.17148120 36.56413768 8.40546457
Ga 147.78066572 0.27464098 32.56460742
Ga 147.72149530 0.78578293 17.66704965
Ga 147.79608617 2.10143555 25.18537915
Ga 147.61605989 36.59074058 10.13361169
Ga 147.83169969 1.50980471 2.77486708
Ga 147.80668337 1.77345234 35.31441707
Ga 147.95904315 36.14291378 20.47505104
Ga 147.96551664 0.33323854 27.74859746
Ga 147.85149384 0.95142164 12.99522516
Ga 147.82918751 36.76025233 5.60617808
Ga 146.04792732 0.11848006 0.41862741
Ga 145.94808115 0.59806436 22.81387353
Ga 146.02130210 1.80039405 30.21750611
Ga 145.93203090 36.32671180 15.31665378
Ga 145.90255192 1.37290365 7.84390442
Ga 144.94172051 0.21741936 34.27408026
Ga 144.94923704 0.75353103 19.40273141
Ga 144.96721012 1.93035701 26.73104363
Ga 144.91742355 36.39418231 11.85357007
Ga 144.81911594 1.47742141 4.34010454
Ga 152.52069632 0.17143404 36.17112018
Ga 152.54121239 0.80593721 21.16397515
Ga 152.49594858 2.00418041 28.65311373
Ga 152.51134531 36.15604246 13.77871406
Ga 152.56383911 1.40523909 6.34422104
Ga 152.55746737 0.36503032 31.42171679
Ga 152.54906095 0.90510278 16.56777184
Ga 152.53223356 2.05069547 23.87109411
Ga 152.63606070 36.52443619 9.08242767
Ga 152.52647782 1.61818322 1.64672650
Ga 150.67545482 1.73098391 33.79802831
Ga 150.76101676 36.18381144 18.85902437
Ga 150.76068280 0.61435270 26.34130960
Ga 150.66664582 1.18692111 11.48290512
Ga 150.74654197 36.80873420 3.90414153
Ga 149.63769114 0.10993457 0.46731980
Ga 149.64577582 0.74713516 22.86483730
Ga 149.71402618 1.88824482 30.14346119
Ga 149.61617333 36.23543927 15.29655767
Ga 149.66201438 1.31820472 7.88462320
Ga 157.19577818 1.74875066 32.16289561
Ga 157.24893803 36.41753957 17.22081533
Ga 157.27618707 0.59674666 24.66502336
Ga 157.15791249 1.18348675 9.87009965
Ga 157.22864889 36.79617575 2.38549755
Ga 157.32699618 0.04533838 34.95758444
Ga 157.27501731 0.92361160 20.05303445
Ga 157.33302638 1.94767925 27.43760868
Ga 157.34337968 36.42278432 12.51026981
Ga 157.24968811 1.33217022 5.10666820
Ga 155.40957117 1.63264215 0.12890130
Ga 155.41943448 2.45112620 22.47437404
Ga 155.42727006 0.37699888 29.74633605
Ga 155.50298572 1.02695071 14.79554628
Ga 155.38217241 36.62045924 7.36279015
Ga 154.37640808 1.79814687 33.83087737
Ga 154.45353092 36.20267190 18.82637483
Ga 154.39953432 0.51432424 26.30537272
Ga 154.30362679 0.95930645 11.44447914
Ga 154.29009237 36.82024997 3.86286890
Ga 161.83092415 1.64309152 35.72882833
Ga 161.98534666 2.36118657 20.76465680
Ga 161.95686445 0.51948794 28.23623008
Ga 162.00516392 1.15281409 13.22109436
Ga 161.97175943 36.71582234 5.76340717
Ga 161.98649379 1.90462643 30.95729396
Ga 162.07622024 36.27038839 15.87593162
Ga 162.22519753 0.64846849 23.48674673
Ga 161.98687813 1.19701111 8.58530499
Ga 161.90113013 0.01204380 1.12745905
Ga 160.01564436 0.22218391 33.24529414
Ga 160.32166550 0.83029691 18.35144159
Ga 160.17720695 2.05612697 25.86021439
Ga 160.22254011 36.45204019 10.92539621
Ga 160.08067511 1.54586501 3.44297231
Ga 158.98991686 1.57241151 37.25602482
Ga 159.14711192 2.24634165 22.37244464
Ga 159.12550922 0.38970146 29.91755460
Ga 159.16674581 1.03072900 14.78854042
Ga 159.05238803 36.55426164 7.39812734
Ga 166.77746454 0.27000894 31.62794244
Ga 166.63978209 0.97257633 16.88610040
Ga 166.75250200 2.10891844 24.31718532
Ga 166.76206771 36.55950939 9.37532779
Ga 166.68806655 1.54694971 2.01691934
Ga 166.70985740 1.67866384 34.50091331
Ga 166.77911948 2.33659294 19.58167189
Ga 166.70489963 0.34414740 27.09090179
Ga 166.74019522 1.03637825 12.19294600
Ga 166.65136667 36.68017199 4.75819645
Ga 164.83711746 0.11322366 36.86461589
Ga 164.90174381 0.73198063 21.85394948
Ga 164.85741084 1.85563541 29.18572482
Ga 164.89164705 36.40298976 14.57467415
Ga 164.73668129 1.34304134 7.06101523
Ga 163.71192198 0.26766364 33.29526929
Ga 163.80628769 0.86708102 18.32850685
Ga 163.80166002 2.11082715 25.78794350
Ga 163.88433221 36.47211739 11.04840541
Ga 163.72984140 1.54101199 3.60707883
Ga 171.40505344 0.08738532 35.18102006
Ga 171.40205243 0.81999959 20.28327875
Ga 171.49301564 1.99270704 27.77960386
Ga 171.37056430 36.45958310 12.84410774
Ga 171.47955271 1.42705528 5.32750653
Ga 171.42644325 0.35802106 30.58852256
Ga 171.44462646 0.92556924 15.53398319
Ga 171.50121766 2.06639745 23.10160132
Ga 171.48577461 36.60557676 8.05227684
Ga 171.28049280 1.55919439 0.66665120
Ga 169.55158051 1.84763236 32.80326278
Ga 169.61101449 2.49095330 18.03534790
Ga 169.59291063 0.58059991 25.59044176
Ga 169.65221350 1.15645280 10.52470155
Ga 169.51185084 36.76277457 3.16583262
Ga 168.50109713 0.02578324 36.84950131
Ga 168.62124474 0.67150542 21.95021751
Ga 168.53969978 1.87812148 29.22064664
Ga 168.43376887 2.59677281 14.53739768
Ga 168.54987555 1.31359896 7.00855446
Ga 176.19822831 1.76677641 31.41011475
Ga 176.20250836 2.40643839 16.40926501
Ga 176.04897279 0.58652778 23.87822830
Ga 176.24540477 1.23902643 8.86814973
Ga 175.88220507 0.02512598 1.46101141
Ga 176.23886734 0.13982497 34.03750813
Ga 176.14705302 0.79553517 19.06827585
Ga 176.10229534 1.98056025 26.67455783
Ga 176.13195213 2.65012241 11.63957034
Ga 176.12861383 1.48401155 4.17338731
Ga 174.22603118 1.54940623 36.37125076
Ga 174.32035515 2.18137081 21.49514322
Ga 174.37355169 0.37382578 28.99449463
Ga 174.27259885 0.98829595 14.01025664
Ga 174.34715379 36.73002231 6.59753128
Ga 173.18787409 1.76110545 32.87926438
Ga 173.28766065 2.34667425 17.88229367
Ga 173.27613500 0.49158750 25.44019813
Ga 173.15455210 1.23026187 10.53872863
Ga 173.19303997 36.69833372 3.10471086
Ga 180.86239086 1.64392887 34.76418795
Ga 180.78142890 2.23849801 19.89297765
Ga 180.82922833 0.36812766 27.38250751
Ga 180.79572958 0.97420121 12.39063325
Ga 180.85553001 36.71886186 5.01094844
Ga 180.83700480 36.83342727 0.39968491
Ga 180.81084440 0.60764328 22.72201098
Ga 180.89650821 1.83356387 30.11219425
Ga 180.94941987 2.48533487 15.11987006
Ga 180.91007946 1.19208368 7.78880288
Ga 179.06626054 0.26122834 32.44063173
Ga 179.08897118 0.83838694 17.52939720
Ga 178.97234875 1.95647991 25.07770993
Ga 178.94120740 36.52652341 10.16641292
Ga 178.97682044 1.44902426 2.76243239
Ga 178.02628462 1.50438075 36.40816671
Ga 177.88851773 2.30623079 21.46268607
Ga 178.05128128 0.32027785 28.91117503
Ga 177.92772195 0.93435176 13.99556832
Ga 177.93508236 36.56334906 6.53308762
Ga 185.52619306 0.26455761 30.84323689
Ga 185.52618762 0.87915668 15.93998299
Ga 185.52618733 2.10835542 23.39160576
Ga 185.52619268 2.72295392 8.48835133
Ga 185.52619116 1.49375566 1.03672235
Ga 185.55387791 1.68814264 33.58086526
Ga 185.55386593 2.30274141 18.67760844
Ga 185.55387395 0.45894126 26.12923251
Ga 185.55387657 1.07354150 11.22597897
Ga 185.55387439 36.72034018 3.77434661
Ga 183.72599632 0.05401299 35.94928053
Ga 183.72597943 0.66861468 21.04601789
Ga 183.72600391 1.89781882 28.49764743
Ga 183.72601168 2.51241343 13.59439232
Ga 183.72601655 1.28321211 6.14276005
Ga 182.65648301 0.19765659 32.46430137
Ga 182.65645441 0.81227671 17.56104620
Ga 182.65646271 2.04146571 25.01268353
Ga 182.65646787 2.65607970 10.10941174
Ga 182.65646979 1.42686978 2.65780938
Ga 190.22377536 0.12177842 34.30537931
Ga 190.22377461 0.73637853 19.40212175
Ga 190.22377488 1.96557856 26.85375016
Ga 190.22377569 2.58017824 11.95049262
Ga 190.22377563 1.35097831 4.49886320
Ga 190.25145904 1.54536402 37.04300545
Ga 190.25145791 2.15996397 22.13974724
Ga 190.25145938 0.31616410 29.59137632
Ga 190.25145899 0.93076400 14.68811879
Ga 190.25145972 2.77456386 7.23648953
Ga 188.42359934 1.75503372 31.95979254
Ga 188.42359793 2.36963347 17.05653520
Ga 188.42359875 0.52583356 24.50816337
Ga 188.42359990 1.14043317 9.60490598
Ga 188.42359965 36.78723317 2.15327664
Ga 187.35405318 0.05488591 35.92645036
Ga 187.35405041 0.66948672 21.02319218
Ga 187.35405238 1.89868689 28.47482078
Ga 187.35405121 2.51328565 13.57156424
Ga 187.35405323 1.28408510 6.11993412
Ga 194.92138047 1.82280288 30.31589410
Ga 194.92138048 2.43740287 15.41263614
Ga 194.92138046 0.59360288 22.86426511
Ga 194.92138049 1.20820287 7.96100714
Ga 194.92138049 36.85500287 0.50937816
Ga 194.94906262 0.17338786 33.05351364
Ga 194.94906261 0.78798786 18.15025568
Ga 194.94906261 2.01718786 25.60188465
Ga 194.94906262 2.63178786 10.69862668
Ga 194.94906263 1.40258786 3.24699770
Ga 193.12119197 1.61225762 35.42193265
Ga 193.12119178 2.22685762 20.51867469
Ga 193.12119196 0.38305762 27.97030364
Ga 193.12119202 0.99765761 13.06704571
Ga 193.12119204 2.84145759 5.61541668
Ga 192.05164272 1.75590927 31.93696250
Ga 192.05164258 2.37050921 17.03370467
Ga 192.05164256 0.52670923 24.48533348
Ga 192.05164296 1.14130920 9.58207559
Ga 192.05164293 36.78810920 2.13044658
Ga 199.61898691 1.68002630 33.77803544
Ga 199.61898691 2.29462630 18.87477747
Ga 199.61898691 0.45082630 26.32640645
Ga 199.61898691 1.06542630 11.42314848
Ga 199.61898691 2.90922630 3.97151950
Ga 199.64670624 0.03062704 36.51562939
Ga 199.64670624 0.64522704 21.61237142
Ga 199.64670624 1.87442704 29.06400040
Ga 199.64670624 2.48902704 14.16074244
Ga 199.64670624 1.25982704 6.70911345
Ga 197.81876642 0.24028235 31.43246026
Ga 197.81876642 0.85488235 16.52920229
Ga 197.81876642 2.08408235 23.98083127
Ga 197.81876642 2.69868235 9.07757330
Ga 197.81876642 1.46948235 1.62594432
Ga 196.74922407 1.61313037 35.39910457
Ga 196.74922407 2.22773037 20.49584660
Ga 196.74922407 0.38393037 27.94747558
Ga 196.74922407 0.99853037 13.04421762
Ga 196.74922407 2.84233037 5.59258863
Si 14.52099351 0.00000016 0.00000014
Si 14.52099496 1.53650090 2.66129650
Si 14.52099400 0.00000081 5.32259272
Si 14.52099476 1.53649996 7.98388793
Si 14.52099465 36.87599985 10.64518451
Si 14.52099410 1.53650019 13.30648077
Si 14.52099453 36.87599973 15.96777711
Si 14.52099521 1.53650020 18.62907302
Si 14.52099467 0.00000037 21.29036848
Si 14.52099445 1.53650107 23.95166388
Si 14.52099283 0.00000052 26.61296033
Si 14.52099266 1.53650053 29.27425714
Si 14.52099265 0.00000038 31.93555341
Si 14.52099450 1.53650038 34.59684961
Si 9.49447742 0.00000016 37.25814465
Si 9.49447742 1.53650017 2.66129574
Si 9.49447741 0.00000016 5.32259175
Si 9.49447742 1.53650016 7.98388776
Si 9.49447741 0.00000016 10.64518415
Si 9.49447742 1.53650016 13.30648017
Si 9.49447743 0.00000016 15.96777619
Si 9.49447746 1.53650016 18.62907219
Si 9.49447745 0.00000017 21.29036820
Si 9.49447744 1.53650017 23.95166420
Si 9.49447743 0.00000016 26.61296023
Si 9.49447743 1.53650016 29.27425661
Si 9.49447744 0.00000016 31.93555263
Si 9.49447744 1.53650016 34.59684864
Si 12.00775040 1.53644910 0.88718693
Si 12.00775052 3.07294899 3.54848327
Si 12.00775033 1.53644898 6.20977933
Si 12.00775024 3.07294888 8.87107529
Si 12.00775020 1.53644893 11.53237134
Si 12.00775037 3.07294901 14.19366749
Si 12.00775042 1.53644906 16.85496348
Si 12.00775080 3.07294906 19.51625945
Si 12.00775052 1.53644908 22.17755577
Si 12.00775062 3.07294912 24.83885169
Si 12.00775009 1.53644910 27.50014773
Si 12.00775026 3.07294905 30.16144376
Si 12.00775017 1.53644900 32.82273996
Si 12.00775037 3.07294903 35.48403592
Si 6.98087576 0.00005109 1.77410903
Si 6.98087576 1.53655109 4.43540504
Si 6.98087576 0.00005109 7.09670106
Si 6.98087576 1.53655109 9.75799708
Si 6.98087576 0.00005109 12.41929309
Si 6.98087576 1.53655109 15.08058910
Si 6.98087576 0.00005109 17.74188548
Si 6.98087577 1.53655109 20.40318149
Si 6.98087576 0.00005109 23.06447750
Si 6.98087576 1.53655109 25.72577352
Si 6.98087576 0.00005109 28.38706954
Si 6.98087576 1.53655109 31.04836555
Si 6.98087576 0.00005109 33.70966156
Si 6.98087576 1.53655109 36.37095794
Si 24.53876511 36.86568332 37.25215413
Si 24.46899196 1.50169578 2.67391491
Si 24.60528209 36.83724544 5.37636253
Si 24.60404279 1.49209514 8.07351871
Si 24.57422723 0.00880077 10.63596024
Si 24.52883842 1.51957762 13.34508770
Si 24.59198018 0.00279043 15.92643899
Si 24.63843395 1.55448324 18.62891666
Si 24.61801607 36.82853800 21.36572594
Si 24.51421015 1.54399598 23.90946583
Si 24.57784547 0.00119597 26.66583931
Si 24.60337403 1.57572695 29.25276157
Si 24.58680120 36.86683023 31.96113511
Si 24.56851752 1.50800825 34.51794304
Si 19.54748877 0.00002625 37.25812509
Si 19.54754316 1.53650559 2.66129089
Si 19.54752747 0.00000263 5.32258752
Si 19.54750568 1.53651062 7.98389875
Si 19.54750050 36.87599024 10.64518450
Si 19.54747486 1.53648046 13.30649584
Si 19.54753443 0.00000722 15.96777694
Si 19.54753270 1.53650122 18.62907483
Si 19.54749507 0.00000483 21.29035224
Si 19.54747203 1.53650275 23.95166900
Si 19.54748233 0.00001732 26.61294551
Si 19.54746294 1.53651219 29.27424972
Si 19.54748064 36.87598413 31.93557960
Si 19.54749754 1.53649232 34.59685248
Si 22.07458682 1.53919273 0.81078670
Si 22.04610462 3.08209498 3.57369789
Si 22.02929675 1.57155958 6.22151929
Si 22.11338634 3.06808632 8.89112946
Si 22.00561460 1.57948800 11.55485484
Si 21.98910759 3.08685742 14.20200619
Si 22.07981515 1.53463340 16.89564925
Si 22.11732723 3.13415887 19.49938314
Si 22.06518496 1.53931120 22.19200158
Si 22.05805038 3.03959483 24.85987901
Si 22.06406112 1.45710992 27.54039969
Si 22.04121357 3.03624114 30.16036759
Si 22.06075106 1.52603724 32.79457309
Si 22.05654282 3.01328795 35.47322617
Si 17.03425037 0.00005289 1.77410744
Si 17.03425541 1.53655474 4.43540555
Si 17.03425335 0.00005374 7.09670368
Si 17.03425182 1.53654944 9.75799701
Si 17.03425273 0.00005126 12.41929297
Si 17.03425415 1.53655300 15.08058801
Si 17.03425451 0.00005133 17.74188591
Si 17.03425188 1.53655227 20.40318190
Si 17.03424204 0.00005196 23.06447548
Si 17.03424849 1.53655516 25.72577215
Si 17.03423944 0.00005248 28.38706827
Si 17.03424055 1.53655277 31.04836729
Si 17.03425095 0.00005322 33.70966385
Si 17.03425133 1.53655515 36.37095787
Si 34.57607521 0.02471512 0.00007423
Si 34.61725772 1.52171248 2.68196687
Si 34.63878331 36.83066404 5.27709007
Si 34.60702357 1.49411176 7.98641375
Si 34.70825732 0.02616397 10.64201396
Si 34.56878395 1.56794016 13.36647871
Si 34.66726838 0.03700947 16.02712029
Si 34.60446702 1.57790642 18.67725265
Si 34.59858010 36.83575118 21.39371747
Si 34.64334271 1.54754351 23.95914921
Si 34.66388092 36.83602425 26.61396506
Si 34.68018339 1.49315397 29.29211136
Si 34.68152273 36.84076491 32.01554777
Si 34.61619831 1.52542667 34.63513883
Si 29.62620248 0.01984172 37.23777544
Si 29.63882054 1.46196068 2.60731394
Si 29.58081154 0.06754402 5.32853177
Si 29.55283293 1.46032353 7.97808402
Si 29.59399369 36.85910388 10.68248314
Si 29.65780720 1.48006861 13.30559133
Si 29.58294683 36.83455429 15.89413888
Si 29.57348119 1.53674832 18.59271195
Si 29.60997480 0.00761476 21.28837565
Si 29.62939049 1.56366742 23.90949320
Si 29.64577525 0.07668423 26.61098969
Si 29.63675225 1.54149163 29.21401618
Si 29.63575127 0.04513447 31.88600251
Si 29.65449837 1.44325173 34.56180328
Si 32.06021470 1.69153454 0.87859033
Si 32.21309359 3.08096231 3.57359905
Si 32.13093081 1.53107693 6.22668731
Si 32.11117741 3.04929815 8.88776149
Si 32.12595680 1.52385337 11.55184669
Si 32.16285197 3.06652818 14.16924777
Si 32.13027302 1.49034081 16.81441511
Si 32.11676750 3.14114465 19.51365345
Si 32.04621326 1.55394805 22.19100566
Si 32.14754233 3.08349823 24.86168304
Si 32.14756803 1.55312102 27.47395373
Si 32.13518727 3.13646200 30.11454558
Si 32.05084246 1.52720007 32.75467439
Si 32.08391400 3.16314823 35.47248724
Si 27.07419503 0.00153306 1.80977653
Si 27.08264782 1.51191595 4.45910196
Si 27.06410119 36.83771279 7.11930065
Si 27.08182942 1.47175429 9.74323165
Si 27.00183137 36.78521856 12.47833008
Si 27.11732165 1.50585948 15.10305725
Si 27.12933042 36.80114978 17.77484205
Si 27.06608010 1.51986783 20.53710470
Si 27.06791996 0.00176999 23.03655881
Si 27.11756277 1.47991366 25.59436663
Si 27.16652683 0.04794326 28.48031015
Si 26.98666497 1.57128134 31.06515003
Si 27.11065148 0.03645590 33.73579045
Si 27.04636075 1.51903404 36.39475042
Si 44.70507532 0.03712615 37.25008601
Si 44.72214787 1.58643548 2.60812442
Si 44.70705884 0.11187776 5.32813683
Si 44.71914423 1.55229160 8.02417331
Si 44.66089766 0.11152826 10.69239425
Si 44.62814802 1.55775261 13.27277843
Si 44.65264938 0.05103424 16.01026149
Si 44.70991394 1.62265014 18.70704718
Si 44.69072417 36.86134618 21.33347179
Si 44.72415784 1.57787695 23.97608527
Si 44.72127901 0.01653851 26.62156080
Si 44.71008700 1.58928201 29.31709680
Si 44.75201754 0.02768698 31.89933924
Si 44.65087044 1.60864637 34.51989859
Si 39.69167830 36.85786874 0.03241112
Si 39.69004833 1.53738076 2.67546216
Si 39.73715428 36.86368152 5.36970263
Si 39.70126480 1.51991231 8.00531860
Si 39.66782099 0.01305642 10.71754576
Si 39.61763169 1.58014216 13.39326378
Si 39.63639835 0.03987577 15.99599680
Si 39.58505501 1.55110057 18.70852209
Si 39.62151885 0.04225754 21.30818304
Si 39.63746406 1.56159832 23.95841064
Si 39.67886944 0.02671981 26.59773653
Si 39.61779949 1.53364304 29.34573326
Si 39.69336288 0.02935815 31.96245856
Si 39.64567613 1.42805557 34.56769086
Si 42.18091715 1.55600594 0.87831305
Si 42.06983234 3.05796898 3.57600809
Si 42.22198450 1.50051643 6.17682342
Si 42.16112439 3.14005144 8.89772285
Si 42.02092605 1.58453765 11.53609670
Si 42.17070175 3.13085655 14.14522492
Si 42.12785146 1.54807092 16.92502212
Si 42.12358902 3.05729474 19.52580833
Si 42.23617275 1.61064323 22.19134540
Si 42.23244252 3.00918283 24.81558701
Si 42.11753702 1.49450833 27.48753839
Si 42.09780907 3.06777406 30.20727269
Si 42.23003127 1.51326664 32.81393527
Si 42.11128652 3.16693512 35.50523948
Si 37.14256966 0.00113212 1.72871854
Si 37.13098958 1.54603290 4.49890855
Si 37.15511117 36.84533291 7.06718118
Si 37.16317390 1.55228991 9.72780950
Si 37.18133536 0.03973723 12.38874170
Si 37.12694663 1.55210531 15.16594167
Si 37.14455021 0.10889499 17.81999299
Si 37.19470897 1.55813793 20.45933243
Si 37.14389754 0.02433757 23.09350981
Si 37.14787187 1.55284970 25.71504356
Si 37.25309309 0.02048776 28.41264116
Si 37.21543763 1.56335050 31.10159757
Si 37.09016663 0.03418912 33.70876995
Si 37.07743731 1.49592201 36.36556772
Si 54.71186242 0.07102990 0.02986512
Si 54.68089906 1.57793361 2.68709526
Si 54.68547946 0.00410345 5.39025585
Si 54.76795269 1.64336759 8.00218684
Si 54.73005169 0.05172433 10.64106166
Si 54.79591779 1.56522389 13.37860393
Si 54.69762527 0.02259791 15.99210497
Si 54.80027010 1.56451479 18.69293633
Si 54.67788076 36.86269290 21.36678442
Si 54.75156241 1.65268225 23.96759982
Si 54.76474046 0.08503798 26.67086035
Si 54.74541405 1.54944932 29.28169389
Si 54.67532915 0.09679483 31.93489027
Si 54.80040216 1.58786384 34.61838449
Si 49.73021159 0.06989202 37.24431183
Si 49.75086107 1.55576573 2.68363388
Si 49.68039657 0.03245178 5.37731104
Si 49.73421397 1.55979404 8.01929011
Si 49.70616880 0.00071870 10.66935066
Si 49.75031603 1.57745644 13.36723493
Si 49.72460127 0.06177088 16.05705956
Si 49.72330711 1.52449386 18.66098640
Si 49.71951432 36.87002634 21.30135632
Si 49.74858682 1.59261348 23.96596189
Si 49.64901225 0.07087171 26.61471508
Si 49.69352327 1.59396175 29.29472623
Si 49.74570684 0.08037072 31.98067616
Si 49.69290551 1.59317078 34.61990587
Si 52.17830463 1.61433122 0.87269445
Si 52.30615595 3.17339973 3.51232896
Si 52.28604949 1.58654782 6.17269430
Si 52.28239556 3.12184208 8.90856964
Si 52.25021961 1.51056703 11.62512750
Si 52.18235365 3.13123505 14.27203273
Si 52.24376886 1.49103678 16.98173859
Si 52.21418319 3.09643761 19.55045581
Si 52.28456327 1.57061106 22.22130688
Si 52.26103960 3.18366251 24.80060601
Si 52.20290744 1.58695048 27.45991675
Si 52.25874714 3.14091503 30.18563714
Si 52.21219913 1.57052388 32.89917543
Si 52.13565594 3.11410703 35.47980210
Si 47.29199862 0.03068334 1.75510273
Si 47.22740161 1.52793338 4.38205402
Si 47.15353243 0.07933632 7.15423410
Si 47.18073126 1.65853875 9.76428616
Si 47.20091065 0.12818964 12.43699073
Si 47.16210165 1.61531577 15.09583453
Si 47.22805816 0.06640577 17.74900702
Si 47.14640636 1.60603863 20.45636423
Si 47.26541906 36.81119491 23.08520989
Si 47.13674152 1.50375650 25.82820799
Si 47.17717057 36.85229160 28.41910467
Si 47.18853901 1.56028383 31.06636839
Si 47.18202159 0.07460859 33.77164023
Si 47.18310729 1.60306987 36.33175254
Si 64.78388821 36.84894777 0.00610013
Si 64.75766714 1.56461185 2.75735942
Si 64.79718874 0.06241194 5.36293401
Si 64.76206536 1.60661522 8.12243521
Si 64.71214901 0.00900010 10.75577004
Si 64.86784588 1.63945317 13.39562543
Si 64.80525007 0.06533555 16.02340966
Si 64.71208774 1.48078656 18.70121861
Si 64.80862423 0.07328408 21.31110955
Si 64.75521081 1.56160741 24.06125863
Si 64.81053844 0.03053273 26.69427321
Si 64.77411640 1.62619363 29.35687864
Si 64.73565679 0.01674351 31.98264315
Si 64.83226420 1.51096342 34.65670038
Si 59.72236031 0.04955879 0.08843172
Si 59.61817802 1.54587275 2.81893886
Si 59.76134221 0.10504265 5.36917762
Si 59.77820798 1.59657445 8.08678216
Si 59.75917209 0.02712900 10.68930255
Si 59.77350135 1.55140381 13.36740884
Si 59.82241584 0.02910862 15.95441092
Si 59.69522921 1.58978609 18.71158921
Si 59.74519417 0.05697984 21.40356360
Si 59.68864512 1.60749395 24.06695509
Si 59.67216229 0.07562234 26.62451269
Si 59.68970731 1.58053099 29.33758905
Si 59.66941264 36.84966625 32.03890058
Si 59.72012482 1.54545522 34.56970069
Si 62.28954831 1.58413482 0.99645674
Si 62.28935482 3.07747737 3.57700785
Si 62.27258418 1.68105827 6.23421104
Si 62.26803073 3.16631943 8.90264643
Si 62.20215907 1.56584394 11.58955706
Si 62.26663998 3.10443608 14.26799266
Si 62.27766532 1.52368344 16.88792139
Si 62.27565980 3.08280477 19.59499101
Si 62.25867545 1.56000096 22.20494994
Si 62.22894811 3.14601684 24.88036265
Si 62.19265711 1.59711291 27.55436416
Si 62.20122179 3.11088052 30.21365802
Si 62.27773784 1.52935173 32.91987473
Si 62.27434440 3.09534596 35.53689718
Si 57.21951308 0.02636788 1.89953418
Si 57.14058727 1.53846717 4.43559962
Si 57.24008266 0.07461641 7.19956671
Si 57.20315112 1.55610439 9.81735255
Si 57.25213740 0.06299819 12.44569449
Si 57.28713248 1.54873645 15.18483449
Si 57.26342042 0.01921093 17.77306469
Si 57.15099198 1.56866605 20.47307528
Si 57.25150141 0.04084463 23.12272511
Si 57.17107435 1.62967392 25.71417584
Si 57.24965118 0.06264945 28.50341942
Si 57.23942438 1.64547314 31.11918453
Si 57.23959559 36.84662497 33.73916159
Si 57.29790463 1.58419834 36.39684975
Si 74.85388623 36.84752797 0.09552523
Si 74.80089327 1.50780428 2.66743928
Si 74.82832212 36.85580750 5.48997873
Si 74.68275833 1.60512971 8.08711856
Si 74.80973030 0.01879902 10.78879039
Si 74.74936603 1.61412194 13.44243725
Si 74.91063409 0.07609855 16.07592468
Si 74.84802821 1.59490804 18.80032675
Si 74.88231224 0.03895483 21.36726412
Si 74.79444983 1.59776882 24.01755511
Si 74.76011869 0.06414201 26.75790662
Si 74.78528042 1.57183788 29.36620635
Si 74.79568986 36.86916259 32.05920797
Si 74.79682849 1.48260972 34.70545367
Si 69.75100345 36.81964505 0.08044104
Si 69.75235587 1.58759655 2.66900826
Si 69.73366308 36.81524435 5.39557136
Si 69.79244080 1.51413264 8.03292094
Si 69.81551282 0.00630318 10.73161726
Si 69.77705901 1.57240901 13.35368049
Si 69.82315482 0.03687632 16.11016146
Si 69.63327943 1.56722455 18.68007038
Si 69.78618724 0.08476467 21.36251513
Si 69.86710968 1.57982232 24.05564896
Si 69.83826252 36.85241173 26.68616281
Si 69.76194862 1.59518336 29.38247742
Si 69.80115574 0.07304030 31.95238486
Si 69.78571020 1.56851726 34.71168295
Si 72.23605842 1.57324548 0.96926830
Si 72.36779498 3.14414377 3.65293574
Si 72.29794080 1.46437352 6.23454705
Si 72.20495332 3.17083428 8.94046007
Si 72.34609975 1.58585132 11.63292582
Si 72.28609881 3.18725730 14.26696376