  84   84
1 1
    12.005932999999994    -0.267628500000000    -0.376379500000000
    -0.346124500000000    25.858962000000002     0.632474000000000
    -0.530189000000000     0.627822000000000    23.137228000000004
1 2
     0.019082000000000     0.006515000000000    -0.077573500000000
     0.007528000000000    -1.713583000000000    -0.062241000000000
    -0.075723000000000    -0.062504000000000     1.690479000000000
1 3
     0.001700500000000     0.004803000000000    -0.003383500000000
    -0.000116000000000     0.125238500000000     0.233943000000000
     0.001103500000000     0.120099000000000    -0.321417000000000
1 4
     0.002001500000000    -0.004498000000000     0.005947500000000
     0.000089500000000    -0.131136000000000    -0.229388500000000
     0.001261000000000    -0.074111000000000     0.026047000000000
1 5
    -0.003552000000000    -0.015652500000000     0.011692000000000
    -0.000844500000000    -0.909227000000000     0.319974000000000
     0.002824000000000     0.355844000000000     0.149890000000000
1 6
    -0.001501000000000    -0.044297500000000     0.021205000000000
     0.001916500000000     0.900197000000000    -0.760897000000000
    -0.002371000000000    -0.873076000000000    -0.334220500000000
1 7
     0.001903500000000    -0.000691500000000     0.001670000000000
     0.000001500000000     0.018507000000000     0.003368500000000
     0.001442500000000     0.003834000000000    -0.081628500000000
1 8
     0.001930500000000    -0.001007000000000     0.002245500000000
     0.000028000000000    -0.021719000000000     0.007137000000000
     0.001471000000000     0.002631000000000    -0.071476000000000
1 9
     0.047472500000000     0.018527000000000     0.181490500000000
    -0.028864000000000     1.067334000000000     2.395107500000000
     0.071170500000000     1.563354500000000    -1.195842500000000
1 10
     0.004605000000000     0.013907500000000     0.003856500000000
     0.006093500000000    -0.973165000000000    -0.564287500000000
     0.002101500000000    -0.258969000000000     0.557425500000000
1 11
     0.001926000000000     0.000145000000000     0.002955500000000
    -0.000063000000000     0.008081000000000     0.062536500000000
     0.001368000000000     0.004613500000000    -0.123105500000000
1 12
     0.001928000000000    -0.001213000000000     0.002586000000000
     0.000069500000000    -0.009175000000000    -0.046117500000000
     0.001345000000000    -0.036431500000000    -0.107345500000000
1 13
     0.009040500000000     0.146832000000000    -0.158744500000000
     0.138123500000000    -3.741269000000001     0.608747500000000
     0.149433000000000     1.879797500000000     2.646602000000001
1 14
    -0.110769500000000    -0.301034500000000    -0.148021000000000
    -0.256747000000000    -4.619576500000001    -1.202029000000000
     0.102045500000000    -1.703733500000000     2.458470500000000
1 15
     0.002009000000000    -0.001790500000000     0.001515500000000
     0.000160500000000     0.104631500000000    -0.120675000000000
     0.001482000000000    -0.101257500000000    -0.273186000000000
1 16
     0.001725000000000     0.002271500000000     0.009483000000000
    -0.000148500000000    -0.105639500000000     0.161613000000000
     0.001317500000000     0.066037500000000    -0.067907500000000
1 17
    -0.826669500000000     2.392019999999999     1.327034999999999
     2.219398500000000   -10.595148500000002    -6.438143000000001
     1.207193500000000    -6.557517500000001    -5.936705500000000
1 18
     0.041136500000000     0.053537000000000     0.041236000000000
    -0.090780000000000     1.296542500000000     0.053067000000000
     0.127145500000000    -0.672402500000000    -0.861893000000000
1 19
     0.001900000000000    -0.001947500000000    -0.002024500000000
     0.000101000000000    -0.141828500000000    -0.022551000000000
     0.001392000000000     0.050183000000000     0.130580500000000
1 20
     0.001433000000000    -0.001177000000000    -0.005061500000000
     0.000010000000000     0.146888000000000     0.012543500000000
     0.001487000000000    -0.008642500000000     0.021522500000000
1 21
     0.057011500000000    -0.015849500000000     0.078859500000000
    -0.003378000000000    -1.447909500000000    -0.278910500000000
     0.072220500000000    -0.033375500000000     0.835096500000000
1 22
     0.005481500000000     0.001093500000000     0.001514500000000
     0.002033500000000     0.737889000000000     0.160645500000000
    -0.000211000000000    -0.052684500000000    -0.263388000000000
1 23
     0.001921500000000    -0.002696500000000    -0.002738500000000
     0.000068500000000    -0.022819500000000    -0.024112500000000
     0.001242000000000     0.032334500000000     0.072082500000000
1 24
     0.001942000000000    -0.001350500000000    -0.002651500000000
     0.000041500000000     0.014257000000000     0.013784500000000
     0.001242000000000     0.056211500000000     0.064075500000000
1 25
    -0.002432000000000     0.001385000000000    -0.012643000000000
    -0.001004000000000     0.231396000000000    -0.239541000000000
     0.002590500000000    -0.112696000000000    -0.019364000000000
1 26
     0.004065000000000     0.007907500000000    -0.002878500000000
     0.001348500000000    -0.232963500000000     0.163177500000000
     0.003156500000000     0.206361500000000     0.238796000000000
1 27
   -10.698085999999995     0.051146000000000    -1.949644999999999
     0.008765000000000    -1.518481000000000    -0.200091500000000
    -1.510960000000000    -0.101274500000000    -8.694383500000001
1 28
     0.007657000000000    -0.002701000000000     0.063134500000000
     0.017984000000000     0.605547500000000     0.079012500000000
     0.016197500000000     0.001269000000000    -1.423074500000000
1 29
     0.005415000000000    -0.010757000000000     0.000050000000000
    -0.000644000000000    -0.137716500000000    -0.241136500000000
     0.005991000000000    -0.154259500000000     0.333039500000000
1 30
    -0.000726500000000    -0.000244000000000    -0.008206000000000
     0.001422000000000     0.137836000000000     0.289122500000000
     0.001949500000000     0.071525500000000    -0.066876500000000
1 31
    -0.005042000000000    -0.073738000000000     0.055082500000000
     0.017922500000000     0.949755000000000     1.768172000000001
    -0.317515500000000     0.835172000000000    -2.116369500000000
1 32
    -0.016384500000000     0.041657500000000     0.102594000000000
    -0.140333000000000     1.052727000000000    -1.813535500000000
    -0.259800500000000    -0.601313500000000    -2.238475000000000
1 33
     0.001915500000000    -0.000633000000000    -0.004632000000000
     0.000094500000000     0.023152500000000    -0.035030500000000
     0.001235000000000    -0.045217500000000     0.114449500000000
1 34
     0.001913000000000     0.000140000000000    -0.003580000000000
     0.000044500000000    -0.022688500000000     0.019202500000000
     0.001231500000000    -0.005531000000000     0.132537000000000
1 35
    -0.677591500000000    -1.845049499999999     1.094926999999999
    -1.730801000000000    -9.299408000000001     5.215786000000000
     0.960087000000000     5.163090500000001    -5.886619000000000
1 36
     0.050530000000000    -0.070286500000000     0.034767000000000
     0.091808000000000     1.341348000000000     0.198153500000000
     0.133291000000000     0.601022000000000    -0.957699500000000
1 37
    -0.082261500000000     0.027460000000000    -0.049585000000000
     0.008943000000000     0.678837500000000    -1.184291000000000
     0.003428000000000    -0.580833500000000     0.015849500000000
1 38
    -0.060837500000000    -0.016684500000000    -0.030142500000000
     0.000958000000000     0.477035500000000     1.114983500000000
     0.017377500000000     0.512265000000000    -0.167969000000000
1 39
     0.002085000000000    -0.003581000000000    -0.003744000000000
    -0.000041000000000     0.023534000000000    -0.098106500000000
     0.001467000000000    -0.112616000000000     0.149553500000000
1 40
     0.001949500000000     0.002030000000000    -0.004223500000000
     0.000107000000000    -0.032035000000000     0.082783000000000
     0.001420500000000     0.077998500000000     0.101242500000000
1 41
     0.001881000000000    -0.000916500000000     0.001875500000000
     0.000089000000000    -0.001867000000000     0.004617000000000
     0.001255000000000     0.002149500000000    -0.086520000000000
1 42
     0.001857000000000    -0.000884500000000     0.002339000000000
     0.000003500000000    -0.001320000000000     0.009606500000000
     0.001169500000000    -0.000431500000000    -0.097660000000000
1 43
     0.001850500000000    -0.000981000000000     0.002297500000000
     0.000093000000000    -0.002370500000000     0.003717000000000
     0.001310500000000     0.001723000000000    -0.093551500000000
1 44
     0.001866500000000    -0.000944500000000     0.001956500000000
    -0.000017000000000    -0.000585000000000     0.010539500000000
     0.001337000000000     0.002515000000000    -0.087796000000000
1 45
     0.001877000000000    -0.000776000000000     0.001902500000000
     0.000348000000000     0.004238000000000    -0.011689000000000
     0.001426000000000    -0.001064500000000    -0.067134500000000
1 46
     0.001891000000000    -0.001184000000000     0.001496500000000
    -0.000058500000000    -0.007507500000000     0.023318000000000
     0.001535500000000     0.007630500000000    -0.077085000000000
1 47
     0.001889500000000    -0.000758500000000     0.001063500000000
     0.000210000000000    -0.003747000000000     0.006907000000000
     0.001519500000000    -0.008867000000000    -0.053353000000000
1 48
     0.002107500000000    -0.001086500000000     0.002687500000000
     0.000073500000000     0.001133500000000     0.003455500000000
     0.000709500000000     0.005377000000000    -0.103725500000000
1 49
     0.002389000000000    -0.002862500000000     0.004868500000000
     0.001665000000000     0.003176500000000     0.008460000000000
    -0.003821000000000     0.048143000000000    -0.207810000000000
1 50
     0.001789000000000     0.000072000000000    -0.000903000000000
    -0.000098500000000    -0.004799500000000     0.000102000000000
     0.001318000000000    -0.016868500000000     0.047823000000000
1 51
     0.001632000000000    -0.000728000000000     0.003134500000000
     0.002557000000000     0.022040500000000    -0.080120500000000
     0.003136000000000    -0.025626000000000    -0.087635500000000
1 52
     0.001473500000000    -0.000791500000000     0.000496000000000
    -0.000698000000000    -0.025823000000000     0.094945000000000
     0.000145500000000    -0.009056000000000    -0.093727000000000
1 53
     0.000544000000000    -0.005119000000000     0.006478000000000
     0.015085500000000     0.035158500000000    -0.257850500000000
     0.010773000000000    -0.027219500000000    -0.199057500000000
1 54
     0.002020000000000    -0.002724500000000    -0.006111000000000
     0.000661500000000    -0.049336500000000     0.271757000000000
     0.002830500000000     0.151087500000000     0.206979500000000
1 55
     0.001517000000000     0.001267000000000    -0.004716000000000
     0.005920500000000    -0.038195500000000    -0.153787500000000
     0.001555500000000    -0.137429000000000     0.230163000000000
1 56
     0.015014000000000    -0.005793500000000     0.013665000000000
     0.008102500000000     0.042646500000000     0.158983500000000
    -0.033603500000000     0.000049500000000    -0.553415500000000
1 57
     0.029563000000000     0.004081000000000    -0.148159000000000
    -0.002074000000000     0.815200500000000     0.089210000000000
    -0.270632500000000    -0.279793000000000    -4.426601000000001
1 58
     0.005164000000000     0.002919500000000    -0.043783000000000
     0.003494500000000    -0.668268500000000    -0.041283000000000
    -0.061471000000000     0.064949000000000     1.159601000000000
1 59
     0.015115000000000    -0.021885000000000    -0.005001000000000
     0.081704500000000    -0.018905500000000     1.918035000000000
     0.076295000000000     1.107043000000000     0.831906000000000
1 60
     0.024520500000000     0.016631000000000     0.016373500000000
    -0.094164500000000    -0.174590000000000    -2.012498000000000
     0.044305500000000    -0.996661500000000     0.668822500000000
1 61
     0.001917500000000    -0.000875000000000    -0.002112500000000
     0.000029500000000    -0.002092500000000    -0.001564500000000
     0.001317500000000     0.000473500000000     0.043671500000000
1 62
     0.001918500000000    -0.000834500000000    -0.002105000000000
     0.000041000000000    -0.000794000000000    -0.002882500000000
     0.001331500000000    -0.001493000000000     0.042222000000000
1 63
     0.001897000000000    -0.000973000000000    -0.002206000000000
     0.000071000000000    -0.000837000000000    -0.001636500000000
     0.001290500000000     0.000429500000000     0.042905000000000
1 64
     0.001905500000000    -0.000846000000000    -0.002089000000000
     0.000036500000000    -0.001866000000000    -0.002627500000000
     0.001353500000000    -0.001588000000000     0.045087000000000
1 65
     0.001973000000000    -0.000672500000000    -0.002974500000000
    -0.000007500000000    -0.006277000000000    -0.010158500000000
     0.001261000000000    -0.007109500000000     0.095613000000000
1 66
     0.001954000000000    -0.001175500000000    -0.002943000000000
     0.000003500000000     0.003145500000000    -0.000705500000000
     0.001316000000000     0.004679000000000     0.076260000000000
1 67
     0.001860500000000    -0.001138000000000    -0.003183500000000
     0.000087000000000    -0.006036500000000     0.000470000000000
     0.001229000000000     0.007397000000000     0.087795500000000
1 68
     0.001944000000000    -0.000725500000000    -0.002716500000000
    -0.000013000000000     0.003469000000000    -0.011335000000000
     0.001355000000000    -0.007934500000000     0.075827000000000
1 69
     0.001861500000000    -0.002176000000000    -0.003242000000000
     0.000301000000000     0.014441000000000     0.025059500000000
     0.001231000000000     0.037683500000000     0.066783000000000
1 70
     0.001905500000000     0.000113500000000    -0.002128000000000
     0.000310500000000    -0.018238000000000    -0.037811000000000
     0.001729000000000    -0.029225000000000     0.072557000000000
1 71
     0.001987500000000    -0.000895500000000    -0.001721000000000
     0.000587500000000     0.023385500000000    -0.002287500000000
     0.001415500000000    -0.026978500000000     0.043845000000000
1 72
     0.002194500000000    -0.001191500000000    -0.004476500000000
    -0.000185000000000    -0.025561500000000    -0.006656000000000
     0.001137000000000     0.023377000000000     0.137841500000000
1 73
     0.001930000000000    -0.002216000000000     0.002005500000000
    -0.003985000000000     0.105705000000000     0.012507500000000
    -0.003432000000000     0.007747500000000    -0.166164500000000
1 74
     0.004224500000000    -0.000699500000000    -0.008731000000000
     0.004602500000000    -0.107554500000000    -0.014953000000000
    -0.002941500000000     0.056847500000000     0.302830500000000
1 75
     0.001551500000000    -0.003671500000000    -0.006232000000000
     0.000567000000000     0.016623000000000     0.144763000000000
     0.002353500000000     0.120055000000000     0.104207000000000
1 76
    -0.000775500000000     0.001916500000000     0.000002000000000
     0.000767500000000    -0.021236000000000    -0.165321500000000
    -0.001834500000000    -0.177873500000000     0.104063500000000
1 77
     0.063919000000000    -0.014432500000000     0.004110000000000
    -0.023864000000000    -0.386360500000000    -0.207761000000000
     0.006770000000000    -0.463477500000000     0.965880000000000
1 78
    -0.000498500000000    -0.011559500000000     0.005661500000000
     0.047114000000000     0.396936000000000     0.330619500000000
    -0.026192000000000     0.154322000000000    -0.494751000000000
1 79
     0.000996500000000     0.002852500000000     0.013485000000000
     0.026070000000000     0.284692000000000    -0.554927500000000
     0.032522500000000    -0.312915500000000    -0.492879000000000
1 80
    -0.020013500000000    -0.021594000000000    -0.024269500000000
    -0.000743500000000    -0.316272500000000     0.427184500000000
    -0.012451000000000     0.643210000000000     0.213324000000000
1 81
     0.001912000000000    -0.000862000000000    -0.000877000000000
     0.000064500000000    -0.002256000000000    -0.000073500000000
     0.001312000000000     0.000668000000000     0.014235500000000
1 82
     0.001907500000000    -0.000900000000000    -0.001153500000000
     0.000004000000000    -0.000697000000000    -0.000234500000000
     0.001305500000000     0.000420000000000     0.014015000000000
1 83
     0.001916000000000    -0.000873500000000    -0.000947000000000
     0.000020500000000    -0.001397000000000    -0.000336000000000
     0.001290500000000    -0.000935000000000     0.014429500000000
1 84
     0.001892000000000    -0.000975000000000    -0.001108000000000
     0.000051500000000    -0.001408500000000    -0.000006500000000
     0.001297500000000     0.001549000000000     0.014161000000000
2 1
     0.019100000000000     0.006361500000000    -0.077905500000000
     0.007571000000000    -1.713478000000000    -0.062473500000000
    -0.076018500000000    -0.062206000000000     1.690845000000000
2 2
    12.005034499999994    -0.269477000000000    -0.375899500000000
    -0.347904000000000    25.858331000000000     0.638440000000000
    -0.526853000000000     0.629468000000000    23.137062500000003
2 3
     0.002034500000000    -0.004391500000000     0.005618500000000
     0.000096000000000    -0.131602500000000    -0.229460500000000
     0.001254000000000    -0.073921000000000     0.026259000000000
2 4
     0.001709500000000     0.004824000000000    -0.004023500000000
    -0.000057500000000     0.124882500000000     0.233761000000000
     0.001028500000000     0.120708500000000    -0.320951500000000
2 5
    -0.001536000000000    -0.044054000000000     0.021411000000000
     0.001931000000000     0.900128500000000    -0.760859500000000
    -0.002487000000000    -0.873228000000000    -0.334086000000000
2 6
    -0.003567000000000    -0.015548500000000     0.011750000000000
    -0.000833000000000    -0.908964500000000     0.319953000000000
     0.002809000000000     0.355751500000000     0.150041000000000
2 7
     0.001917500000000    -0.001209500000000     0.002156000000000
     0.000019500000000    -0.021649000000000     0.008192000000000
     0.001398500000000     0.002706500000000    -0.072057000000000
2 8
     0.001927000000000    -0.000892000000000     0.001799000000000
     0.000028500000000     0.018478000000000     0.004332500000000
     0.001433000000000     0.004028000000000    -0.082109000000000
2 9
     0.004705000000000     0.013907500000000     0.003829000000000
     0.006047500000000    -0.973565500000000    -0.564547500000000
     0.002040500000000    -0.258691000000000     0.557576000000000
2 10
     0.047443000000000     0.018340500000000     0.181425500000000
    -0.028837500000000     1.066871500000000     2.394915500000000
     0.071076500000000     1.563890500000000    -1.195543000000000
2 11
     0.001900500000000    -0.001457500000000     0.002887000000000
     0.000049000000000    -0.009818500000000    -0.045884000000000
     0.001279000000000    -0.035965500000000    -0.107064500000000
2 12
     0.001952500000000    -0.000032500000000     0.003031000000000
     0.000031000000000     0.007640000000000     0.063108500000000
     0.001307500000000     0.005276000000000    -0.122889000000000
2 13
    -0.110765000000000    -0.300653000000000    -0.148012000000000
    -0.256763500000000    -4.619153500000001    -1.202265500000000
     0.101915500000000    -1.704530000000000     2.458649500000000
2 14
     0.009084000000000     0.147423500000000    -0.158653500000000
     0.138128000000000    -3.740632000000001     0.608719000000000
     0.149364000000000     1.879265500000000     2.646783000000001
2 15
     0.001700000000000     0.002239500000000     0.009220500000000
    -0.000114000000000    -0.104865000000000     0.161024000000000
     0.001381000000000     0.065489500000000    -0.067385000000000
2 16
     0.002053500000000    -0.001882500000000     0.001426000000000
     0.000138000000000     0.105137000000000    -0.121154500000000
     0.001483500000000    -0.101655000000000    -0.272579500000000
2 17
     0.041183000000000     0.053869500000000     0.041725500000000
    -0.090809500000000     1.297201500000000     0.053786000000000
     0.127193000000000    -0.672530500000000    -0.862346000000000
2 18
    -0.826419000000000     2.392745499999999     1.328067999999999
     2.220135000000000   -10.597695500000000    -6.439977500000000
     1.207709000000000    -6.560172000000001    -5.938266000000001
2 19
     0.001483500000000    -0.000980000000000    -0.004439000000000
     0.000006000000000     0.146889000000000     0.012583000000000
     0.001445000000000    -0.009000500000000     0.021134000000000
2 20
     0.001878500000000    -0.001326000000000    -0.001437000000000
     0.000110000000000    -0.142426500000000    -0.022793500000000
     0.001377500000000     0.050305500000000     0.130859000000000
2 21
     0.005459500000000     0.000817500000000     0.001263000000000
     0.002015500000000     0.737522500000000     0.160718500000000
    -0.000281000000000    -0.052620000000000    -0.263553500000000
2 22
     0.057009000000000    -0.016101000000000     0.078606500000000
    -0.003432500000000    -1.447871500000000    -0.278825500000000
     0.072203000000000    -0.032917500000000     0.835162500000000
2 23
     0.001908000000000    -0.002091000000000    -0.002163000000000
     0.000060500000000     0.013691000000000     0.015010500000000
     0.001209500000000     0.056313500000000     0.063796000000000
2 24
     0.001909000000000    -0.003059000000000    -0.002019000000000
     0.000054000000000    -0.023591500000000    -0.022890500000000
     0.001216500000000     0.032799000000000     0.071952500000000
2 25
     0.004107500000000     0.007975500000000    -0.002783500000000
     0.001342500000000    -0.233177000000000     0.163866000000000
     0.003158500000000     0.206456000000000     0.238292500000000
2 26
    -0.002408500000000     0.001514000000000    -0.012754500000000
    -0.001008000000000     0.231252500000000    -0.238853500000000
     0.002563000000000    -0.112783500000000    -0.019476000000000
2 27
     0.007586000000000    -0.002850000000000     0.063352000000000
     0.017782500000000     0.605482000000000     0.078399000000000
     0.016455500000000     0.001455000000000    -1.423884500000000
2 28
   -10.697129499999996     0.050961000000000    -1.949766999999999
     0.008535000000000    -1.518747500000000    -0.200535500000000
    -1.510955000000000    -0.101580500000000    -8.695015000000001
2 29
    -0.000799500000000    -0.000358500000000    -0.008438500000000
     0.001428500000000     0.137674500000000     0.290146500000000
     0.001949000000000     0.071785000000000    -0.066668000000000
2 30
     0.005374500000000    -0.011040500000000    -0.000132000000000
    -0.000649500000000    -0.137691000000000    -0.239376500000000
     0.005984500000000    -0.154003500000000     0.332371000000000
2 31
    -0.016310000000000     0.041859500000000     0.103123000000000
    -0.140036000000000     1.052909000000000    -1.813356000000000
    -0.260083000000000    -0.601270000000000    -2.239633000000000
2 32
    -0.004807500000000    -0.073562000000000     0.055980000000000
     0.018172500000000     0.949810500000000     1.768320000000000
    -0.317728500000000     0.835111000000000    -2.117054000000000
2 33
     0.001933500000000     0.000632000000000    -0.004090500000000
     0.000011500000000    -0.022159000000000     0.018917000000000
     0.001159000000000    -0.005893500000000     0.132802500000000
2 34
     0.001921000000000    -0.000475500000000    -0.004879000000000
     0.000096500000000     0.023887500000000    -0.035255500000000
     0.001190000000000    -0.045453500000000     0.114695000000000
2 35
     0.050629500000000    -0.070071500000000     0.035263500000000
     0.091752000000000     1.340606000000000     0.199164000000000
     0.133226000000000     0.601464500000000    -0.958427500000000
2 36
    -0.677748500000000    -1.843710499999999     1.094692499999999
    -1.729740000000000    -9.296352000000001     5.213802500000001
     0.959270500000000     5.160664500000001    -5.885786000000001
2 37
    -0.060902500000000    -0.016794500000000    -0.029893500000000
     0.000956000000000     0.477736000000000     1.115116000000000
     0.017387500000000     0.511882500000000    -0.167947000000000
2 38
    -0.082335000000000     0.027677500000000    -0.049482000000000
     0.008958500000000     0.679391000000000    -1.184021000000000
     0.003457500000000    -0.580897000000000     0.015489500000000
2 39
     0.001937500000000     0.001437500000000    -0.003789500000000
     0.000094500000000    -0.031827500000000     0.082903000000000
     0.001416500000000     0.077854000000000     0.101042500000000
2 40
     0.002056000000000    -0.003753000000000    -0.003678500000000
    -0.000017000000000     0.024013000000000    -0.098344000000000
     0.001449000000000    -0.112982500000000     0.149363000000000
2 41
     0.001830500000000    -0.000933000000000     0.001730000000000
     0.000057000000000    -0.001382000000000     0.008601000000000
     0.001125500000000    -0.000398000000000    -0.097267500000000
2 42
     0.001903000000000    -0.000929500000000     0.001432500000000
     0.000049000000000    -0.001912000000000     0.003494000000000
     0.001213000000000     0.002260500000000    -0.086092000000000
2 43
     0.001836000000000    -0.001050500000000     0.001464000000000
    -0.000010000000000    -0.000601000000000     0.009534000000000
     0.001304000000000     0.002516500000000    -0.087385000000000
2 44
     0.001890000000000    -0.000901000000000     0.001757000000000
     0.000083500000000    -0.002356500000000     0.002628000000000
     0.001300000000000     0.001804000000000    -0.093184000000000
2 45
     0.001880000000000    -0.001129000000000     0.001397500000000
    -0.000059000000000    -0.007511000000000     0.023374500000000
     0.001527000000000     0.007702500000000    -0.077110500000000
2 46
     0.001868000000000    -0.000830500000000     0.001858500000000
     0.000368500000000     0.004258500000000    -0.011609000000000
     0.001392000000000    -0.001004000000000    -0.067132000000000
2 47
     0.002107500000000    -0.001107000000000     0.002548000000000
     0.000074500000000     0.001206500000000     0.003508500000000
     0.000690000000000     0.005505000000000    -0.103762500000000
2 48
     0.001854500000000    -0.000716000000000     0.001055000000000
     0.000241000000000    -0.003825500000000     0.006996500000000
     0.001478000000000    -0.008821000000000    -0.053373000000000
2 49
     0.001811500000000     0.000011000000000    -0.000701500000000
    -0.000113500000000    -0.004746500000000     0.000495000000000
     0.001280000000000    -0.016806000000000     0.047722500000000
2 50
     0.002398500000000    -0.002853500000000     0.005061500000000
     0.001679500000000     0.003214000000000     0.008852500000000
    -0.003853000000000     0.048201500000000    -0.207873000000000
2 51
     0.001487500000000    -0.000758500000000     0.000679500000000
    -0.000655500000000    -0.025798000000000     0.095335500000000
     0.000103500000000    -0.008960000000000    -0.093783000000000
2 52
     0.001607000000000    -0.000737500000000     0.003328000000000
     0.002560500000000     0.022058000000000    -0.079750500000000
     0.003095000000000    -0.025604000000000    -0.087687000000000
2 53
     0.002017000000000    -0.002704500000000    -0.005939000000000
     0.000684000000000    -0.049286500000000     0.271906500000000
     0.002789500000000     0.151171000000000     0.207034000000000
2 54
     0.000536000000000    -0.005091000000000     0.006682500000000
     0.015083000000000     0.035223500000000    -0.257728000000000
     0.010738500000000    -0.027179500000000    -0.198984500000000
2 55
     0.015002500000000    -0.005764000000000     0.013837500000000
     0.008105500000000     0.042577500000000     0.159108500000000
    -0.033632500000000     0.000128500000000    -0.553363500000000
2 56
     0.001515000000000     0.001281000000000    -0.004551000000000
     0.005903500000000    -0.038231500000000    -0.153637000000000
     0.001511000000000    -0.137348000000000     0.230224500000000
2 57
     0.005156500000000     0.002822500000000    -0.043988000000000
     0.003466000000000    -0.668279000000000    -0.041457000000000
    -0.061459500000000     0.064973500000000     1.159643000000000
2 58
     0.029519500000000     0.003996500000000    -0.148432000000000
    -0.002085500000000     0.815206500000000     0.088750000000000
    -0.270721500000000    -0.279867500000000    -4.426584000000001
2 59
     0.024435500000000     0.016715500000000     0.016002000000000
    -0.094089500000000    -0.174653000000000    -2.012336500000000
     0.044246500000000    -0.996548500000000     0.668865500000000
2 60
     0.015026000000000    -0.021820000000000    -0.005277000000000
     0.081781500000000    -0.018863000000000     1.918192000000000
     0.076248000000000     1.107070000000000     0.831969500000000
2 61
     0.001932500000000    -0.000833000000000    -0.001955000000000
     0.000030500000000    -0.000694000000000    -0.003740000000000
     0.001318000000000    -0.001351000000000     0.042785500000000
2 62
     0.001903500000000    -0.000852000000000    -0.001989000000000