84   
504  

1    
  0.0100000000000000   0.0000000000000000   0.0000000000000000
  -0.1216959100    0.0057319700    0.0089449100
   0.0035123300    0.0009973200    0.0029199900
  -0.0041766100    0.0036286200   -0.0035004300
  -0.0041387700    0.0013974900   -0.0031594500
   0.0022824700    0.0025001500   -0.0010448300
   0.0023091600    0.0011532000   -0.0009154800
   0.0006946800    0.0021104900    0.0004431600
   0.0006719300    0.0019161900    0.0005529900
  -0.0000893900    0.0017076500    0.0014573500
   0.0005163300    0.0008691600    0.0036220600
   0.0001818100    0.0009171300    0.0002120500
   0.0006027400    0.0003005700   -0.0007995300
  -0.0001685800   -0.0008346800    0.0020994400
   0.0006605900    0.0026675700    0.0019215000
  -0.0032732100   -0.0031441100    0.0002788900
  -0.0034142700   -0.0035119900    0.0002726900
   0.0123099300   -0.0220292500   -0.0118858800
   0.0033197800    0.0018792700    0.0015584500
   0.0037260700    0.0006462300    0.0014578900
   0.0037669900    0.0017066400    0.0019106200
   0.0013688400    0.0049409300   -0.0031140000
   0.0017028400    0.0044055500   -0.0028645100
   0.0027942200   -0.0031959300   -0.0001446600
   0.0026688500   -0.0026020600    0.0001525400
   0.0031236300   -0.0002362900    0.0012357400
   0.0030595900   -0.0004195500    0.0008850600
   0.1049915200   -0.0012719000    0.0130484000
  -0.0018311100   -0.0007213000   -0.0030673600
  -0.0021900200    0.0002119700    0.0022221600
  -0.0020847000    0.0003728000    0.0022146800
   0.0011786100    0.0051331300   -0.0026214600
   0.0014162800    0.0039127300   -0.0021058400
   0.0010967900    0.0029369500   -0.0001231000
   0.0011149700    0.0027786500    0.0004967000
   0.0029857800    0.0201419700   -0.0117345200
  -0.0041406000    0.0033256300   -0.0017147900
   0.0052477000   -0.0020824600   -0.0052321600
   0.0048051800   -0.0005373500   -0.0059755700
   0.0029471200   -0.0021449700    0.0038388000
   0.0029123400   -0.0007098900    0.0031768600
  -0.0011258000    0.0053036900    0.0003865700
  -0.0005290800    0.0039159600    0.0010244100
  -0.0025606000    0.0050538100   -0.0017128800
  -0.0022331400    0.0058872900   -0.0004868500
  -0.0025416300   -0.0003462100   -0.0013304700
  -0.0023825300   -0.0010613700   -0.0008895300
  -0.0027371200   -0.0012437000   -0.0006719100
  -0.0028050000   -0.0002908600   -0.0001273400
  -0.0007038400   -0.0002473100   -0.0006451600
  -0.0015387200   -0.0004088700   -0.0002059900
   0.0025979600    0.0001406600   -0.0007576500
   0.0024365900    0.0000823400   -0.0019794400
  -0.0027998300   -0.0041856700   -0.0037124600
  -0.0028332200   -0.0037364400   -0.0028906700
   0.0026365300   -0.0019309800    0.0007453700
   0.0032511800   -0.0013009800    0.0001084100
  -0.0016002300   -0.0052918500    0.0007101700
  -0.0014049300   -0.0050584200   -0.0016153600
  -0.0012785000    0.0006346600    0.0008393800
  -0.0013687200   -0.0001852100    0.0017802700
   0.0019220900   -0.0003267800    0.0036005900
   0.0020733700   -0.0019425400    0.0022704000
  -0.0008539300   -0.0032002600    0.0067043400
  -0.0016463400   -0.0026844700    0.0049785300
  -0.0004225600    0.0024692000    0.0052115400
  -0.0007276300    0.0025938500    0.0059412800
   0.0008643500   -0.0039741900    0.0052875200
  -0.0004190800   -0.0031085300    0.0046675200
   0.0041183100   -0.0006406600    0.0036287900
   0.0040642600    0.0004777600    0.0045682100
   0.0001606500   -0.0019001700    0.0124617400
  -0.0014817200   -0.0031399000    0.0117772600
  -0.0046737500   -0.0016886900   -0.0151306100
  -0.0049275200   -0.0012558100   -0.0145907300
   0.0077752100   -0.0068664000   -0.0083025200
   0.0078961600   -0.0071076900   -0.0080720800
  -0.0055083200    0.0035386400   -0.0055328900
  -0.0044977300    0.0035812800   -0.0060783500
  -0.0043447700   -0.0033498700   -0.0003109200
  -0.0040075800   -0.0031460000    0.0003241300
  -0.0018552200    0.0000268000    0.0012702800
  -0.0018870000    0.0003340800    0.0019224500
  -0.0014276400    0.0003361800    0.0004981400
  -0.0014388600    0.0003954100   -0.0005828300

1    
 -0.0100000000000000   0.0000000000000000   0.0000000000000000
   0.1184227500    0.0003794000    0.0014173200
   0.0038939700    0.0011276200    0.0013685200
  -0.0041426000    0.0037246800   -0.0035681000
  -0.0040987400    0.0013075300   -0.0030405000
   0.0022114300    0.0021871000   -0.0008109900
   0.0022791400    0.0002672500   -0.0004913800
   0.0007327500    0.0020966600    0.0004765600
   0.0007105400    0.0018960500    0.0005979000
   0.0008600600    0.0020781900    0.0050871600
   0.0006084300    0.0011473100    0.0036991900
   0.0002203300    0.0009200300    0.0002711600
   0.0006413000    0.0002763100   -0.0007478100
   0.0000122300    0.0021019600   -0.0010754500
  -0.0015548000   -0.0033531200   -0.0010389200
  -0.0032330300   -0.0031799200    0.0003092000
  -0.0033797700   -0.0034665600    0.0004623500
  -0.0042234600    0.0258111500    0.0146548200
   0.0041425100    0.0029500100    0.0023831700
   0.0037640700    0.0006072800    0.0014174000
   0.0037956500    0.0016831000    0.0018093900
   0.0025090700    0.0046239400   -0.0015368100
   0.0018124700    0.0044274200   -0.0028342200
   0.0028326500   -0.0032498600   -0.0001994300
   0.0027076900   -0.0026290700    0.0000995100
   0.0030749900   -0.0002085900    0.0009828800
   0.0031408900   -0.0002614000    0.0008274900
  -0.1089702000   -0.0002489800   -0.0259445000
  -0.0016779700   -0.0007753200   -0.0018046700
  -0.0020817200   -0.0000031700    0.0022231600
  -0.0020992300    0.0003679200    0.0020505600
   0.0010777700    0.0036583700   -0.0015198100
   0.0010885900    0.0047458800   -0.0000539600
   0.0011351000    0.0029242900   -0.0002157400
   0.0011532300    0.0027814500    0.0004251000
  -0.0105660500   -0.0167590200    0.0101640200
  -0.0031300000    0.0019199000   -0.0010194500
   0.0036024700   -0.0015332600   -0.0062238600
   0.0035884300   -0.0008710400   -0.0065784200
   0.0029888200   -0.0022165900    0.0037639200
   0.0029513300   -0.0006692900    0.0030923900
  -0.0010881800    0.0052853600    0.0004240800
  -0.0004919400    0.0038982700    0.0010711900
  -0.0025235900    0.0050341900   -0.0016669300
  -0.0021958100    0.0058684000   -0.0004477200
  -0.0025040900   -0.0003617300   -0.0012924200
  -0.0023447100   -0.0010850500   -0.0008596000
  -0.0026993300   -0.0012588700   -0.0006506400
  -0.0027628500   -0.0003125900   -0.0000735900
  -0.0006560600   -0.0003045600   -0.0005477900
  -0.0015029400   -0.0004074300   -0.0002240500
   0.0026306000    0.0001261000   -0.0006949600
   0.0024660600    0.0000665100   -0.0019695200
  -0.0027889500   -0.0042880500   -0.0035829000
  -0.0027928200   -0.0037909300   -0.0030128900
   0.0026668700   -0.0019056400    0.0006510500
   0.0035514600   -0.0014168500    0.0003817100
  -0.0010089700   -0.0052102300   -0.0022530100
  -0.0013016500   -0.0050000300   -0.0024910200
  -0.0009762000    0.0001969600    0.0007393600
  -0.0008783100    0.0001474100    0.0021077400
   0.0019604400   -0.0003442800    0.0035583400
   0.0021117400   -0.0019592300    0.0022283000
  -0.0008159900   -0.0032197200    0.0066602200
  -0.0016082300   -0.0027013900    0.0049367500
  -0.0003831000    0.0024557500    0.0051520500
  -0.0006885500    0.0025703400    0.0058824200
   0.0009015600   -0.0039969500    0.0052238500
  -0.0003802000   -0.0031230400    0.0046131900
   0.0041555400   -0.0006841800    0.0035639500
   0.0041023700    0.0004800300    0.0045256500
   0.0002004000   -0.0019180800    0.0124273200
  -0.0014378300   -0.0031637300    0.0116877300
  -0.0046351500   -0.0017330100   -0.0150905000
  -0.0048430300   -0.0012698000   -0.0147653500
   0.0078062400   -0.0069398300   -0.0084271600
   0.0078806500   -0.0070693600   -0.0080720400
  -0.0042299400    0.0032499900   -0.0054506900
  -0.0045077000    0.0033500900   -0.0059651200
  -0.0043248400   -0.0032928200   -0.0000412200
  -0.0044078500   -0.0035778800   -0.0001612600
  -0.0018169800    0.0000095600    0.0012527400
  -0.0018488500    0.0003160800    0.0018993800
  -0.0013893200    0.0003187100    0.0004792000
  -0.0014010200    0.0003759100   -0.0006049900

1    
  0.0000000000000000   0.0100000000000000   0.0000000000000000
   0.0057069900   -0.2565578400   -0.0079078900
   0.0035944000    0.0182024100    0.0027878000
  -0.0041901800    0.0024372600   -0.0058806700
  -0.0041519200    0.0026725700   -0.0008086400
   0.0022228900    0.0114499600   -0.0041186600
   0.0022427300   -0.0083079800    0.0068988200
   0.0006812900    0.0019294900    0.0004175400
   0.0006582100    0.0021322300    0.0004952800
   0.0006334300   -0.0087454000   -0.0206523700
   0.0004693500    0.0107416500    0.0093270200
   0.0001697400    0.0008479000   -0.0003927400
   0.0005887800    0.0003875800   -0.0003232500
  -0.0014553300    0.0379949300   -0.0054513800
   0.0021529700    0.0459289900    0.0126126300
  -0.0032872400   -0.0042060500    0.0014924700
  -0.0034279500   -0.0024267800   -0.0012482500
  -0.0189817000    0.1105447300    0.0678438700
   0.0046062600   -0.0105457600    0.0014108200
   0.0037112700    0.0020528200    0.0016580800
   0.0037486600    0.0002330700    0.0017306200
   0.0019379400    0.0192666400    0.0004729700
   0.0017049000   -0.0029546300   -0.0044749500
   0.0027804800   -0.0029841900    0.0000603800
   0.0026553600   -0.0027488600   -0.0000220000
   0.0030767300   -0.0025339300    0.0034944200
   0.0030542200    0.0020011500   -0.0007781900
  -0.0018717500    0.0144733100   -0.0015017600
  -0.0019682900   -0.0067960200   -0.0032460500
  -0.0021623300    0.0014865800    0.0046374000
  -0.0021391300   -0.0009981600   -0.0007700900
   0.0008863800   -0.0050520300   -0.0197083000
   0.0026032400   -0.0062346800    0.0170981100
   0.0010826200    0.0027031000    0.0001737400
   0.0011009700    0.0030148700    0.0002618100
   0.0128620600    0.0923600400   -0.0510778300
  -0.0045851700   -0.0107796000   -0.0033887600
   0.0043013400   -0.0086078000    0.0061035000
   0.0041507900   -0.0054479600   -0.0174414900
   0.0029362400   -0.0024114600    0.0047791300
   0.0028984200   -0.0003595900    0.0023057700
  -0.0011404400    0.0053201100    0.0003594400
  -0.0005433600    0.0039283300    0.0009508400
  -0.0025755600    0.0050757900   -0.0017272500
  -0.0022469500    0.0058901400   -0.0005734200
  -0.0025588100   -0.0003890300   -0.0012005900
  -0.0023959400   -0.0009910400   -0.0011154100
  -0.0027532400   -0.0012062500   -0.0007371200
  -0.0028168600   -0.0003063700   -0.0001410500
  -0.0007295600   -0.0003017400   -0.0006859900
  -0.0015522100   -0.0003526800   -0.0002273400
   0.0025565000   -0.0000791200    0.0000682200
   0.0024258900    0.0003400800   -0.0029321700
  -0.0029763100   -0.0045851900   -0.0010752900
  -0.0028526000   -0.0032674400   -0.0056861200
   0.0025605100   -0.0015227100    0.0022224600
   0.0032860000   -0.0017793800   -0.0013439000
  -0.0013353700   -0.0133900400   -0.0015829600
  -0.0014206200    0.0016617800   -0.0016480700
  -0.0019835500    0.0005905600   -0.0184811000
  -0.0002209400    0.0017538600    0.0219709600
   0.0019080900   -0.0003090500    0.0035936600
   0.0020595900   -0.0019359100    0.0022766200
  -0.0008684800   -0.0031942900    0.0066989300
  -0.0016607500   -0.0026675500    0.0049812800
  -0.0004358800    0.0025324900    0.0052761500
  -0.0007398200    0.0025575900    0.0059158600
   0.0008499000   -0.0039174600    0.0052480000
  -0.0004324600   -0.0031438600    0.0047476200
   0.0041014900   -0.0007997400    0.0033392300
   0.0040478300    0.0006699600    0.0049199800
   0.0001425500   -0.0021354900    0.0124621000
  -0.0014906500   -0.0028875100    0.0117904000
  -0.0046468400   -0.0027614700   -0.0152351000
  -0.0049638300   -0.0001808400   -0.0145394500
   0.0077521200   -0.0070641200   -0.0098218000
   0.0078481800   -0.0068636500   -0.0064238100
  -0.0046662200    0.0072837300   -0.0034475300
  -0.0050037400   -0.0004982800   -0.0093207000
  -0.0046311100   -0.0061580300    0.0053876400
  -0.0042293800   -0.0002223800   -0.0042096400
  -0.0018692700    0.0000475800    0.0012624600
  -0.0019006200    0.0003397000    0.0019143900
  -0.0014417900    0.0003491400    0.0004929900
  -0.0014531300    0.0004072600   -0.0005923500

1    
  0.0000000000000000  -0.0100000000000000   0.0000000000000000
  -0.0012155000    0.2606214000    0.0047415900
   0.0037449600   -0.0160692500    0.0015429800
  -0.0041925000    0.0049420300   -0.0012018100
  -0.0041501300    0.0000498500   -0.0053964100
   0.0022060000   -0.0067345800    0.0022808200
   0.0022810600    0.0096959600   -0.0083191200
   0.0006813200    0.0022996300    0.0004849100
   0.0006587700    0.0016978500    0.0006380200
   0.0000561500    0.0126012800    0.0272497800
   0.0005912200   -0.0087216500   -0.0019587300
   0.0001684800    0.0010095200    0.0008579900
   0.0005901700    0.0002040800   -0.0012456000
   0.0013071400   -0.0368304500    0.0067235700
  -0.0029819700   -0.0464625400   -0.0114279500
  -0.0032840300   -0.0021134200   -0.0009210300
  -0.0034309200   -0.0045395700    0.0019840100
   0.0254062700   -0.1013582400   -0.0609189900
   0.0027906600    0.0153850900    0.0024721600
   0.0037132900   -0.0007837500    0.0012070600
   0.0037488600    0.0031708300    0.0019814900
   0.0018703800   -0.0096915500   -0.0051052400
   0.0017455700    0.0118031500   -0.0012620400
   0.0027818500   -0.0034405800   -0.0004218700
   0.0026561900   -0.0024637200    0.0002536900
   0.0030566500    0.0020939900   -0.0012964000
   0.0030811900   -0.0026581200    0.0024853600
  -0.0016964500   -0.0158963100   -0.0055035900
  -0.0016086100    0.0053149300   -0.0016658000
  -0.0021752100   -0.0012677500   -0.0001853300
  -0.0021106900    0.0017585600    0.0050123600
   0.0012448300    0.0139430700    0.0156551400
  -0.0002034200    0.0148198600   -0.0191726000
   0.0010845100    0.0031661500   -0.0005268700
   0.0011018600    0.0025611000    0.0006458600
  -0.0217539600   -0.0936281200    0.0532378900
  -0.0027490100    0.0160473600    0.0005743100
   0.0044802000    0.0049689500   -0.0175823200
   0.0041699500    0.0040927500    0.0048581800
   0.0029354200   -0.0019407800    0.0028170000
   0.0029005600   -0.0010002900    0.0039614300
  -0.0011386600    0.0052827700    0.0004517800
  -0.0005432900    0.0039019300    0.0011429700
  -0.0025737000    0.0050283800   -0.0016529100
  -0.0022472900    0.0058784400   -0.0003626300
  -0.0025518500   -0.0003042700   -0.0014343700
  -0.0023971100   -0.0011411900   -0.0006490500
  -0.0027490400   -0.0012811900   -0.0005989800
  -0.0028153900   -0.0002837000   -0.0000719400
  -0.0006962600   -0.0002382100   -0.0005167900
  -0.0015541800   -0.0004486700   -0.0002253000
   0.0026076400    0.0003616900   -0.0015341900
   0.0024119300   -0.0001763800   -0.0010332700
  -0.0026746000   -0.0038820200   -0.0062323000
  -0.0028393700   -0.0042541700   -0.0002509800
   0.0026789200   -0.0022866200   -0.0008532900
   0.0034480500   -0.0009264500    0.0018357700
  -0.0013768500    0.0029139700    0.0002012400
  -0.0013507300   -0.0117035900   -0.0024737300
  -0.0003494600    0.0002124500    0.0198796000
  -0.0021042300   -0.0017379400   -0.0182790000
   0.0019086800   -0.0003509000    0.0035623700
   0.0020604100   -0.0019517900    0.0022189700
  -0.0008670600   -0.0032110300    0.0066662000
  -0.0016600200   -0.0027048700    0.0049287300
  -0.0004360300    0.0024069500    0.0050729800
  -0.0007397500    0.0026205000    0.0059017500
   0.0008516400   -0.0040381900    0.0052574000
  -0.0004327200   -0.0030744800    0.0045209200
   0.0041075100   -0.0005109200    0.0038404200
   0.0040540400    0.0003052000    0.0041637600
   0.0001543000   -0.0016677800    0.0124163500
  -0.0014943500   -0.0033987400    0.0116572800
  -0.0047265400   -0.0006473700   -0.0149849500
  -0.0048717800   -0.0023319300   -0.0148385100
   0.0077634600   -0.0067316600   -0.0069265400
   0.0078635300   -0.0072883700   -0.0097302400
  -0.0051435000   -0.0004434800   -0.0076027500
  -0.0040614600    0.0074404400   -0.0027083100
  -0.0041097100   -0.0004641900   -0.0057109100
  -0.0042442500   -0.0065478300    0.0043340500
  -0.0018679800    0.0000024600    0.0012609900
  -0.0019005400    0.0003257600    0.0019097000
  -0.0014413800    0.0003212000    0.0004862700
  -0.0014521000    0.0003790900   -0.0005924800

1    
  0.0000000000000000   0.0000000000000000   0.0100000000000000
   0.0062274700   -0.0035582300   -0.2286453600
   0.0044382300    0.0016917900   -0.0147525600
  -0.0041932100    0.0024757500   -0.0003115300
  -0.0041537500    0.0021027900   -0.0033719000
   0.0021966900   -0.0012165700   -0.0024325800
   0.0022952200    0.0094909500    0.0026542100
   0.0006768900    0.0020710100    0.0012758000
   0.0006539900    0.0018842600    0.0012868900
  -0.0003646300   -0.0138540400    0.0153070200
   0.0005192900    0.0036083100   -0.0019242400
   0.0001654500    0.0008760400    0.0014756700
   0.0005861900    0.0006565100    0.0003005500
  -0.0015842300   -0.0180754500   -0.0259808100
  -0.0014710500    0.0165730900   -0.0241929000
  -0.0032911300   -0.0021428000    0.0030302100
  -0.0034329200   -0.0041500400    0.0010404200
  -0.0083846700    0.0687848800    0.0610722300
   0.0024350500    0.0091346900    0.0105925700
   0.0037084400    0.0001262300    0.0001317700
   0.0037442600    0.0017850000    0.0016516000
   0.0011803900    0.0051368600   -0.0107034800
   0.0017375000    0.0049511900   -0.0002047900
   0.0027784100   -0.0035384700   -0.0008951800
   0.0026535700   -0.0031722200   -0.0005164300
   0.0030508800    0.0009115300    0.0013088800
   0.0030458100   -0.0024081200   -0.0015417700
   0.0131132400    0.0002743700    0.0823601800
  -0.0019396600   -0.0007561600    0.0117843000
  -0.0022190100    0.0016593000   -0.0011201700
  -0.0021340400   -0.0003452400    0.0028037900
   0.0042585400   -0.0039519500    0.0190561500
   0.0038104100    0.0103549800    0.0212626700
   0.0010809600    0.0033865000   -0.0013149300
   0.0010993400    0.0028400600   -0.0008665300
  -0.0136907400   -0.0511833000    0.0584740400
  -0.0049911700   -0.0033717700    0.0082183700
   0.0043687300    0.0040114300   -0.0058569300
   0.0039995300   -0.0058369000   -0.0045676900
   0.0029310500   -0.0010443900    0.0023048400
   0.0028955100   -0.0014674400    0.0021260500
  -0.0011419900    0.0052772300    0.0012758900
  -0.0005445100    0.0039157300    0.0020288100
  -0.0025776200    0.0050313400   -0.0007493100
  -0.0022504900    0.0058556700    0.0004151800
  -0.0025594100   -0.0003387100   -0.0006386200
  -0.0024018200   -0.0011455200   -0.0001038300
  -0.0027561200   -0.0011585100   -0.0001269100
  -0.0028135000   -0.0003512000    0.0009364300
  -0.0006649400   -0.0007518500    0.0014788900
  -0.0015565100   -0.0002349300   -0.0006909500
   0.0025608100    0.0003927800    0.0001515900
   0.0024273900    0.0001675100   -0.0010398100
  -0.0029221800   -0.0039660400   -0.0016552500
  -0.0028640000   -0.0052655800   -0.0050147500
   0.0026138300   -0.0005402900   -0.0015981200
   0.0037099000   -0.0013620500    0.0057588100
   0.0013174800   -0.0024674700    0.0434077000
  -0.0007614500   -0.0056732600   -0.0136362700
  -0.0019117100   -0.0106310200   -0.0075129200
  -0.0015905100    0.0099506200   -0.0047429500
   0.0019057200   -0.0003358500    0.0031416000
   0.0020567700   -0.0019321000    0.0018269000
  -0.0008706900   -0.0032102900    0.0062524200
  -0.0016640300   -0.0026720800    0.0045057400
  -0.0004374200    0.0025390900    0.0042243700
  -0.0007429300    0.0025392300    0.0051509400
   0.0008478600   -0.0040544500    0.0043762500
  -0.0004359200   -0.0030326700    0.0038820600
   0.0041021400   -0.0010338500    0.0029259900
   0.0040436900    0.0007755400    0.0038216700
   0.0001439000   -0.0016361600    0.0120061200
  -0.0014942600   -0.0033799300    0.0103533800
  -0.0046421800   -0.0017852200   -0.0134540900
  -0.0048785100   -0.0018249100   -0.0177027000
   0.0077445500   -0.0080977300   -0.0094118500
   0.0078846300   -0.0053083400   -0.0091091400
  -0.0049584300    0.0080375400   -0.0151412300
  -0.0042631200    0.0019257300   -0.0010855700
  -0.0046812900   -0.0001930000    0.0047363500
  -0.0040981600   -0.0097959100   -0.0020829500
  -0.0018718900    0.0000157800    0.0011244200
  -0.0019037300    0.0003250400    0.0017763500
  -0.0014444800    0.0003415600    0.0003498000
  -0.0014557100    0.0003741000   -0.0007289000

1    
  0.0000000000000000   0.0000000000000000  -0.0100000000000000
  -0.0043763100    0.0089982100    0.2340992000
   0.0029237700    0.0004417100    0.0190570200
  -0.0041711400    0.0048777300   -0.0067398700
  -0.0041285300    0.0006205700   -0.0028509600
   0.0022531700    0.0059003100    0.0005652200
   0.0022478000   -0.0079705700   -0.0040302000
   0.0007057400    0.0021476900   -0.0003567700
   0.0006834100    0.0019368800   -0.0001426300
   0.0010587800    0.0174130500   -0.0086098300
   0.0005613200   -0.0015710700    0.0092242700
   0.0001928100    0.0009683100   -0.0009864400
   0.0006130900   -0.0000721200   -0.0018463600
   0.0014044300    0.0195205000    0.0269512300
   0.0005698600   -0.0175015800    0.0249765100
  -0.0032614900   -0.0041679500   -0.0024335100
  -0.0034065700   -0.0028292900   -0.0003177300
   0.0157592000   -0.0623654700   -0.0576618800
   0.0049779600   -0.0043133600   -0.0066452900
   0.0037362800    0.0011298900    0.0027433800
   0.0037740000    0.0016121500    0.0020820500
   0.0026248000    0.0044693500    0.0059984500
   0.0017332800    0.0038975000   -0.0054725500
   0.0028032500   -0.0028917800    0.0005464700
   0.0026784100   -0.0020479900    0.0007650800
   0.0031026900   -0.0013423900    0.0009216000
   0.0031089400    0.0017191100    0.0032341500
  -0.0171059600   -0.0017511200   -0.0915274900
  -0.0016157100   -0.0007307800   -0.0166771900
  -0.0020991900   -0.0014258900    0.0055406200
  -0.0020950500    0.0010852700    0.0014662600
  -0.0020917700    0.0127514900   -0.0232712400
  -0.0013856000   -0.0016712900   -0.0235068300
   0.0011056600    0.0024821500    0.0009740600
   0.0011239700    0.0027294400    0.0017842100
   0.0055110000    0.0520785100   -0.0592583400
  -0.0023253500    0.0086486700   -0.0109356200
   0.0044372900   -0.0076052400   -0.0055399400
   0.0043470800    0.0044084000   -0.0079270700
   0.0029603900   -0.0032967100    0.0052959100
   0.0029239200    0.0000925300    0.0041509000
  -0.0011168900    0.0053202200   -0.0004545100
  -0.0005211200    0.0039071000    0.0000756100
  -0.0025514100    0.0050658000   -0.0026203400
  -0.0022237500    0.0059059700   -0.0013407400
  -0.0025308900   -0.0003600000   -0.0019813100
  -0.0023711100   -0.0009929100   -0.0016455300
  -0.0027257300   -0.0013358500   -0.0011939700
  -0.0027993100   -0.0002436600   -0.0011380800
  -0.0007413600    0.0002110100   -0.0026773100
  -0.0015301500   -0.0005723000    0.0002655100
   0.0026235300   -0.0001197400   -0.0016011200
   0.0024303000   -0.0000136100   -0.0029143500
  -0.0027067200   -0.0045104300   -0.0056364000
  -0.0028073900   -0.0022438300   -0.0008751600
   0.0026449400   -0.0032888700    0.0030051400
   0.0030378300   -0.0013610600   -0.0053095000
  -0.0040951700   -0.0080633300   -0.0451243200
  -0.0019908700   -0.0043742800    0.0095557500
  -0.0003858100    0.0115098400    0.0091252000
  -0.0007044000   -0.0099826100    0.0086335000
   0.0019320700   -0.0003263800    0.0040150300
   0.0020834000   -0.0019619600    0.0026713400
  -0.0008448800   -0.0032017000    0.0071105200
  -0.0016369600   -0.0027038400    0.0054074800
  -0.0004122000    0.0023969000    0.0061366300
  -0.0007166100    0.0026328100    0.0066761400
   0.0008724400   -0.0039065100    0.0061321600
  -0.0004088200   -0.0031913600    0.0053986000
   0.0041267600   -0.0002801800    0.0042616500
   0.0040782700    0.0001910400    0.0052728100
   0.0001722100   -0.0021757300    0.0128830200
  -0.0014715200   -0.0029123900    0.0131102100
  -0.0047108200   -0.0016302700   -0.0167773800
  -0.0049373400   -0.0006879600   -0.0116460900
   0.0077916200   -0.0056966300   -0.0073277100
   0.0078479400   -0.0088658100   -0.0070278700
  -0.0048230300   -0.0012320100    0.0041763700
  -0.0047869600    0.0050121700   -0.0109805900
  -0.0040308400   -0.0064513100   -0.0051212300
  -0.0043471800    0.0030682900    0.0021835300
  -0.0018456500    0.0000291400    0.0014091300
  -0.0018776200    0.0003334400    0.0020566500
  -0.0014186700    0.0003228600    0.0006383900
  -0.0014297600    0.0004050800   -0.0004456800

2    
  0.0100000000000000   0.0000000000000000   0.0000000000000000
   0.0034458000    0.0026800700    0.0031804300
  -0.1216249400    0.0040765000    0.0086794600
  -0.0041786400    0.0037274900   -0.0035919900
  -0.0041347300    0.0013071400   -0.0030576300
   0.0022628800    0.0027887600   -0.0011351000
   0.0023297500    0.0008529900   -0.0008214200
   0.0006948700    0.0021180200    0.0004351200
   0.0006721600    0.0019153200    0.0005559100
   0.0003325500    0.0017679600    0.0032562500
   0.0000940100    0.0008220500    0.0018312600
   0.0001824200    0.0009391400    0.0002117400
   0.0006029200    0.0002934400   -0.0008050100
   0.0010198300    0.0037372200    0.0019947500
  -0.0005292200   -0.0019306300    0.0020282800
  -0.0032698400   -0.0031907800    0.0001990300
  -0.0034171500   -0.0034756500    0.0003608200
   0.0034909700    0.0016510700    0.0011072400
   0.0121339500   -0.0218155500   -0.0114632200
   0.0037305000    0.0006344400    0.0014823900
   0.0037628400    0.0017075100    0.0018744000
   0.0018813800    0.0047779100   -0.0023205900
   0.0011914900    0.0045849800   -0.0036539600
   0.0027947300   -0.0032041000   -0.0001568700
   0.0026693500   -0.0025855300    0.0001407400
   0.0030586800   -0.0003042600    0.0011351300
   0.0031244600   -0.0003523700    0.0009814000
  -0.0018962900   -0.0007009500   -0.0044544400
   0.1050496000   -0.0012890300    0.0144292100
  -0.0021281600    0.0001055400    0.0023088000
  -0.0021454800    0.0004812500    0.0021287500
   0.0012825000    0.0039774900   -0.0031176300
   0.0012988200    0.0050667000   -0.0016580000
   0.0010968100    0.0029244900   -0.0001300700
   0.0011153300    0.0027849900    0.0005103100
  -0.0044057100    0.0021180400   -0.0009951800
   0.0032518300    0.0213287000   -0.0124562000
   0.0050353600   -0.0016461400   -0.0054361900
   0.0050188100   -0.0009822100   -0.0057806800
   0.0029488100   -0.0022016300    0.0038421000
   0.0029115000   -0.0006551800    0.0031721200
  -0.0011253600    0.0053044700    0.0003936200
  -0.0005293200    0.0039173800    0.0010380200
  -0.0025604100    0.0050553800   -0.0016988700
  -0.0022333200    0.0058865100   -0.0004803400
  -0.0025411900   -0.0003421200   -0.0013237300
  -0.0023822300   -0.0010646500   -0.0008932300
  -0.0027390600   -0.0012394700   -0.0006861300
  -0.0028022600   -0.0002942500   -0.0001099000
  -0.0006982400   -0.0002762300   -0.0005910800
  -0.0015445100   -0.0003786400   -0.0002650500
   0.0025998000    0.0001419300   -0.0007306600
   0.0024353700    0.0000816500   -0.0020104100
  -0.0028129800   -0.0042153700   -0.0035863500
  -0.0028194100   -0.0037077000   -0.0030172100
   0.0025042800   -0.0018538300    0.0005695900
   0.0033841200   -0.0013765000    0.0002843600
  -0.0013836500   -0.0052842700   -0.0003707400
  -0.0016212800   -0.0050632600   -0.0005252300
  -0.0013708600    0.0002543700    0.0006377800
  -0.0012746600    0.0001940800    0.0019881500
   0.0019225000   -0.0003276800    0.0036010000
   0.0020737300   -0.0019427500    0.0022698200
  -0.0008543000   -0.0032014200    0.0067055300
  -0.0016467300   -0.0026839300    0.0049793800
  -0.0004218800    0.0024734300    0.0052095200
  -0.0007257600    0.0025867900    0.0059448300
   0.0008648500   -0.0039764900    0.0052832100
  -0.0004186500   -0.0031069800    0.0046757800
   0.0041175100   -0.0006623000    0.0036135800
   0.0040652800    0.0005015800    0.0045784600
   0.0001586400   -0.0018976200    0.0124865500
  -0.0014804000   -0.0031389400    0.0117466200
  -0.0046957400   -0.0017054300   -0.0150259300
  -0.0049036900   -0.0012372700   -0.0146972800
   0.0077980500   -0.0069200200   -0.0083716800
   0.0078727700   -0.0070521900   -0.0080056800
  -0.0048667900    0.0035098900   -0.0055337200
  -0.0051362800    0.0036120700   -0.0060715500
  -0.0041388200   -0.0031033800    0.0000832200
  -0.0042150100   -0.0033960600   -0.0000611100
  -0.0018547500    0.0000276700    0.0012828600
  -0.0018870300    0.0003340600    0.0019322700
  -0.0014278100    0.0003377400    0.0005110800
  -0.0014392500    0.0003945700   -0.0005708100

2    
 -0.0100000000000000   0.0000000000000000   0.0000000000000000
   0.0038278000    0.0028073000    0.0016223200
   0.1184757500   -0.0013130400    0.0011614700
  -0.0041379500    0.0036396600   -0.0034796200
  -0.0041005400    0.0014036200   -0.0031381000
   0.0022321600    0.0019076800   -0.0007068800
   0.0022584100    0.0005420200   -0.0005864200
   0.0007332200    0.0020938300    0.0004782400
   0.0007107000    0.0018974800    0.0005918900
   0.0004266500    0.0020461100    0.0033328300
   0.0010428700    0.0011888600    0.0054597700
   0.0002204300    0.0009099900    0.0002694800
   0.0006419700    0.0002927900   -0.0007443900
  -0.0011954700   -0.0022758400   -0.0009654900
  -0.0003475400    0.0010178400   -0.0011447900
  -0.0032358400   -0.0031459900    0.0003834400
  -0.0033760800   -0.0035133000    0.0003893400
   0.0043146300    0.0027284600    0.0019417500
  -0.0043944300    0.0260393600    0.0150981400
   0.0037601700    0.0006148400    0.0013936100
   0.0038004100    0.0016809900    0.0018456600
   0.0019905700    0.0047942600   -0.0022953300
   0.0023316700    0.0042629600   -0.0020818300
   0.0028328900   -0.0032459200   -0.0002001300
   0.0027075300   -0.0026467100    0.0001003600
   0.0031408300   -0.0001447500    0.0010794600