phonopy:
  version: "2.43.2"
  frequency_unit_conversion_factor: 15.633302
  symmetry_tolerance: 1.00000e-05
  configuration:
    cell_filename: "CONTCAR"
    dim: "1 1 1"
    write_force_constants: ".true."

physical_unit:
  atomic_mass: "AMU"
  length: "angstrom"
  force: "eV/angstrom"
  force_constants: "eV/angstrom^2"

space_group:
  type: "P1"
  number: 1
  Hall_symbol: "P 1"

supercell_matrix:
- [   1,   0,   0 ]
- [   0,   1,   0 ]
- [   0,   0,   1 ]

primitive_cell:
  lattice:
  - [     3.089999914200000,     0.000000000000000,     0.000000000000000 ] # a
  - [     0.000000000000000,    11.270000457800000,     0.000000000000000 ] # b
  - [     0.000000000000000,     0.000000000000000,    39.299999237100003 ] # c
  points:
  - symbol: Ga # 1
    coordinates: [  0.251933457216581,  0.375023212033640,  0.559417647833093 ]
    mass: 69.723000
  - symbol: Ga # 2
    coordinates: [  0.251915813094427,  0.875028532281669,  0.559417437436284 ]
    mass: 69.723000
  - symbol: Ga # 3
    coordinates: [  0.655101357279722,  0.254537223333817,  0.711724832060601 ]
    mass: 69.723000
  - symbol: Ga # 4
    coordinates: [  0.655099633784598,  0.754542705072628,  0.711724736732969 ]
    mass: 69.723000
  - symbol: Ga # 5
    coordinates: [  0.656526335301480,  0.004663090806043,  0.660398804599990 ]
    mass: 69.723000
  - symbol: Ga # 6
    coordinates: [  0.656521783168430,  0.504668408151017,  0.660398641797011 ]
    mass: 69.723000
  - symbol: Ga # 7
    coordinates: [  0.154157349903075,  0.393927778573499,  0.827485335712202 ]
    mass: 69.723000
  - symbol: Ga # 8
    coordinates: [  0.154171705823961,  0.893928099470565,  0.827485092800160 ]
    mass: 69.723000
  - symbol: Ga # 9
    coordinates: [  0.154161188745966,  0.260563542561067,  0.636228661325891 ]
    mass: 69.723000
  - symbol: Ga # 10
    coordinates: [  0.154161169311089,  0.760565789864331,  0.636228164696834 ]
    mass: 69.723000
  - symbol: Ga # 11
    coordinates: [  0.655015411086711,  0.144677222924387,  0.790102429532884 ]
    mass: 69.723000
  - symbol: Ga # 12
    coordinates: [  0.654991436425814,  0.644676481288050,  0.790103794477316 ]
    mass: 69.723000
  - symbol: Ga # 13
    coordinates: [  0.650309037349068,  0.116027969450861,  0.578825138933998 ]
    mass: 69.723000
  - symbol: Ga # 14
    coordinates: [  0.650333702356927,  0.616031166392220,  0.578824862534905 ]
    mass: 69.723000
  - symbol: Ga # 15
    coordinates: [  0.155437980540927,  0.492959220779244,  0.738167544795156 ]
    mass: 69.723000
  - symbol: Ga # 16
    coordinates: [  0.155448653434049,  0.992960372981633,  0.738167611626786 ]
    mass: 69.723000
  - symbol: O # 17
    coordinates: [  0.152839517184428,  0.508772392852486,  0.584121154138651 ]
    mass: 15.999400
  - symbol: O # 18
    coordinates: [  0.152820541587981,  0.008771765691937,  0.584121191295656 ]
    mass: 15.999400
  - symbol: O # 19
    coordinates: [  0.655381675531703,  0.388411079555754,  0.738359738651827 ]
    mass: 15.999400
  - symbol: O # 20
    coordinates: [  0.655388164774217,  0.888410346732437,  0.738359912646578 ]
    mass: 15.999400
  - symbol: O # 21
    coordinates: [  0.653367840218347,  0.366599081977717,  0.635334026145102 ]
    mass: 15.999400
  - symbol: O # 22
    coordinates: [  0.653372070094336,  0.866599385997328,  0.635334450042519 ]
    mass: 15.999400
  - symbol: O # 23
    coordinates: [  0.154928245003125,  0.240641701919327,  0.801590219185612 ]
    mass: 15.999400
  - symbol: O # 24
    coordinates: [  0.154913100295009,  0.740639120992289,  0.801590602609636 ]
    mass: 15.999400
  - symbol: O # 25
    coordinates: [  0.156362343866872,  0.006772831276286,  0.687175006462308 ]
    mass: 15.999400
  - symbol: O # 26
    coordinates: [  0.156358212934317,  0.506775294853400,  0.687175110952303 ]
    mass: 15.999400
  - symbol: O # 27
    coordinates: [  0.760449951284963,  0.374367676989138,  0.531134454700467 ]
    mass: 15.999400
  - symbol: O # 28
    coordinates: [  0.760434911910766,  0.874366778672403,  0.531133780698977 ]
    mass: 15.999400
  - symbol: O # 29
    coordinates: [  0.155133395551559,  0.249395860086510,  0.686042750762201 ]
    mass: 15.999400
  - symbol: O # 30
    coordinates: [  0.155132171836727,  0.749396041864291,  0.686042655972861 ]
    mass: 15.999400
  - symbol: O # 31
    coordinates: [  0.483364792408654,  0.126921870956443,  0.531778557993241 ]
    mass: 15.999400
  - symbol: O # 32
    coordinates: [  0.483363952839162,  0.626923827405595,  0.531778243358558 ]
    mass: 15.999400
  - symbol: O # 33
    coordinates: [  0.155176739044925,  0.020424174832164,  0.788569870425924 ]
    mass: 15.999400
  - symbol: O # 34
    coordinates: [  0.155166956247730,  0.520423596116348,  0.788569627881335 ]
    mass: 15.999400
  - symbol: O # 35
    coordinates: [  0.160188966711861,  0.240507617609233,  0.585123883809656 ]
    mass: 15.999400
  - symbol: O # 36
    coordinates: [  0.160187355037174,  0.740506491927627,  0.585124395206371 ]
    mass: 15.999400
  - symbol: O # 37
    coordinates: [  0.659739080901385,  0.138125541086338,  0.631846347251229 ]
    mass: 15.999400
  - symbol: O # 38
    coordinates: [  0.659752517553590,  0.638124805011287,  0.631846750661815 ]
    mass: 15.999400
  - symbol: O # 39
    coordinates: [  0.655197646421401,  0.122681031149435,  0.740602234567315 ]
    mass: 15.999400
  - symbol: O # 40
    coordinates: [  0.655191812811395,  0.622677804256071,  0.740602882697328 ]
    mass: 15.999400
  - symbol: Si # 41
    coordinates: [  0.855729758072914,  0.880058790727649,  0.235340487713069 ]
    mass: 28.085500
  - symbol: Si # 42
    coordinates: [  0.855731372254556,  0.380060122988516,  0.235340327123710 ]
    mass: 28.085500
  - symbol: Si # 43
    coordinates: [  0.356036116893501,  0.130079676559982,  0.235342681706485 ]
    mass: 28.085500
  - symbol: Si # 44
    coordinates: [  0.356024241654345,  0.630077482250896,  0.235341434604103 ]
    mass: 28.085500
  - symbol: Si # 45
    coordinates: [  0.856410461122704,  0.043553678711332,  0.299108600731105 ]
    mass: 28.085500
  - symbol: Si # 46
    coordinates: [  0.856408878452469,  0.543556190089475,  0.299108151503125 ]
    mass: 28.085500
  - symbol: Si # 47
    coordinates: [  0.355317991893355,  0.793568404633972,  0.299122886675278 ]
    mass: 28.085500
  - symbol: Si # 48
    coordinates: [  0.355311584343183,  0.293566868340193,  0.299122644788331 ]
    mass: 28.085500
  - symbol: Si # 49
    coordinates: [  0.853652076408443,  0.376822051614502,  0.362719714010778 ]
    mass: 28.085500
  - symbol: Si # 50
    coordinates: [  0.853665654268005,  0.876820825094681,  0.362719488040045 ]
    mass: 28.085500
  - symbol: Si # 51
    coordinates: [  0.357765983860576,  0.126726819407771,  0.362693600862912 ]
    mass: 28.085500
  - symbol: Si # 52
    coordinates: [  0.357761194884863,  0.626723625474523,  0.362694814621857 ]
    mass: 28.085500
  - symbol: Si # 53
    coordinates: [  0.864576896627851,  0.213010083692279,  0.426500838458591 ]
    mass: 28.085500
  - symbol: Si # 54
    coordinates: [  0.864573094902053,  0.713008730793885,  0.426500389470363 ]
    mass: 28.085500
  - symbol: Si # 55
    coordinates: [  0.347905816370012,  0.964009848842601,  0.426277531581058 ]
    mass: 28.085500
  - symbol: Si # 56
    coordinates: [  0.347885738514190,  0.464005784249968,  0.426277723526314 ]
    mass: 28.085500
  - symbol: Si # 57
    coordinates: [  0.829065839190565,  0.378868949538171,  0.487777574014149 ]
    mass: 28.085500
  - symbol: Si # 58
    coordinates: [  0.829058573301539,  0.878867454871991,  0.487778153914889 ]
    mass: 28.085500
  - symbol: Si # 59
    coordinates: [  0.386320979882241,  0.631037994725868,  0.491516881614735 ]
    mass: 28.085500
  - symbol: Si # 60
    coordinates: [  0.386321724236059,  0.131039425538136,  0.491516389218525 ]
    mass: 28.085500
  - symbol: C # 61
    coordinates: [  0.856004265638095,  0.215247177722753,  0.220705211029845 ]
    mass: 12.010700
  - symbol: C # 62
    coordinates: [  0.855990570285418,  0.715252655409440,  0.220706070683936 ]
    mass: 12.010700
  - symbol: C # 63
    coordinates: [  0.355785424413689,  0.965261079915163,  0.220713502342956 ]
    mass: 12.010700
  - symbol: C # 64
    coordinates: [  0.355801112829861,  0.465258795801924,  0.220713681462002 ]
    mass: 12.010700
  - symbol: C # 65
    coordinates: [  0.855479836961050,  0.378432260237799,  0.283482385952538 ]
    mass: 12.010700
  - symbol: C # 66
    coordinates: [  0.855490709749181,  0.878431962413465,  0.283481823730653 ]
    mass: 12.010700
  - symbol: C # 67
    coordinates: [  0.356230505557380,  0.128477965836207,  0.283480884865103 ]
    mass: 12.010700
  - symbol: C # 68
    coordinates: [  0.356236876250263,  0.628475417944869,  0.283480392052607 ]
    mass: 12.010700
  - symbol: C # 69
    coordinates: [  0.857122713755949,  0.041725250648304,  0.347350061834790 ]
    mass: 12.010700
  - symbol: C # 70
    coordinates: [  0.857113757398007,  0.541723901566310,  0.347349781052017 ]
    mass: 12.010700
  - symbol: C # 71
    coordinates: [  0.354255574694323,  0.791755067139757,  0.347393764077612 ]
    mass: 12.010700
  - symbol: C # 72
    coordinates: [  0.354260840501667,  0.291760786936950,  0.347394255960786 ]
    mass: 12.010700
  - symbol: C # 73
    coordinates: [  0.850396741404555,  0.878644222374944,  0.410826655560994 ]
    mass: 12.010700
  - symbol: C # 74
    coordinates: [  0.850385414728894,  0.378641147219616,  0.410826391837662 ]
    mass: 12.010700
  - symbol: C # 75
    coordinates: [  0.361807980176436,  0.128486509146829,  0.410742064826987 ]
    mass: 12.010700
  - symbol: C # 76
    coordinates: [  0.361799026375092,  0.628484820240763,  0.410742088870581 ]
    mass: 12.010700
  - symbol: C # 77
    coordinates: [  0.334744534006066,  0.465476960113166,  0.474849122582457 ]
    mass: 12.010700
  - symbol: C # 78
    coordinates: [  0.334734420967754,  0.965477175944917,  0.474849863963494 ]
    mass: 12.010700
  - symbol: C # 79
    coordinates: [  0.878293875152816,  0.715295818170627,  0.474559777735192 ]
    mass: 12.010700
  - symbol: C # 80
    coordinates: [  0.878293420217288,  0.215297643427715,  0.474559676798186 ]
    mass: 12.010700
  - symbol: H # 81
    coordinates: [  0.856304724425991,  0.215122084095322,  0.192520231417561 ]
    mass: 1.007940
  - symbol: H # 82
    coordinates: [  0.856297853762241,  0.715120642991505,  0.192520423772988 ]
    mass: 1.007940
  - symbol: H # 83
    coordinates: [  0.355816622444019,  0.465134837111078,  0.192529086377500 ]
    mass: 1.007940
  - symbol: H # 84
    coordinates: [  0.355809241256245,  0.965138073839445,  0.192529902129468 ]
    mass: 1.007940
  reciprocal_lattice: # without 2pi
  - [     0.323624604455337,     0.000000000000000,     0.000000000000000 ] # a*
  - [     0.000000000000000,     0.088731141027408,     0.000000000000000 ] # b*
  - [     0.000000000000000,     0.000000000000000,     0.025445293114815 ] # c*

unit_cell:
  lattice:
  - [     3.089999914200000,     0.000000000000000,     0.000000000000000 ] # a
  - [     0.000000000000000,    11.270000457800000,     0.000000000000000 ] # b
  - [     0.000000000000000,     0.000000000000000,    39.299999237100003 ] # c
  points:
  - symbol: Ga # 1
    coordinates: [  0.251933457216581,  0.375023212033640,  0.559417647833093 ]
    mass: 69.723000
    reduced_to: 1
  - symbol: Ga # 2
    coordinates: [  0.251915813094427,  0.875028532281669,  0.559417437436284 ]
    mass: 69.723000
    reduced_to: 2
  - symbol: Ga # 3
    coordinates: [  0.655101357279722,  0.254537223333817,  0.711724832060601 ]
    mass: 69.723000
    reduced_to: 3
  - symbol: Ga # 4
    coordinates: [  0.655099633784598,  0.754542705072628,  0.711724736732969 ]
    mass: 69.723000
    reduced_to: 4
  - symbol: Ga # 5
    coordinates: [  0.656526335301480,  0.004663090806043,  0.660398804599990 ]
    mass: 69.723000
    reduced_to: 5
  - symbol: Ga # 6
    coordinates: [  0.656521783168430,  0.504668408151017,  0.660398641797011 ]
    mass: 69.723000
    reduced_to: 6
  - symbol: Ga # 7
    coordinates: [  0.154157349903075,  0.393927778573499,  0.827485335712202 ]
    mass: 69.723000
    reduced_to: 7
  - symbol: Ga # 8
    coordinates: [  0.154171705823961,  0.893928099470565,  0.827485092800160 ]
    mass: 69.723000
    reduced_to: 8
  - symbol: Ga # 9
    coordinates: [  0.154161188745966,  0.260563542561067,  0.636228661325891 ]
    mass: 69.723000
    reduced_to: 9
  - symbol: Ga # 10
    coordinates: [  0.154161169311089,  0.760565789864331,  0.636228164696834 ]
    mass: 69.723000
    reduced_to: 10
  - symbol: Ga # 11
    coordinates: [  0.655015411086711,  0.144677222924387,  0.790102429532884 ]
    mass: 69.723000
    reduced_to: 11
  - symbol: Ga # 12
    coordinates: [  0.654991436425814,  0.644676481288050,  0.790103794477316 ]
    mass: 69.723000
    reduced_to: 12
  - symbol: Ga # 13
    coordinates: [  0.650309037349068,  0.116027969450861,  0.578825138933998 ]
    mass: 69.723000
    reduced_to: 13
  - symbol: Ga # 14
    coordinates: [  0.650333702356927,  0.616031166392220,  0.578824862534905 ]
    mass: 69.723000
    reduced_to: 14
  - symbol: Ga # 15
    coordinates: [  0.155437980540927,  0.492959220779244,  0.738167544795156 ]
    mass: 69.723000
    reduced_to: 15
  - symbol: Ga # 16
    coordinates: [  0.155448653434049,  0.992960372981633,  0.738167611626786 ]
    mass: 69.723000
    reduced_to: 16
  - symbol: O # 17
    coordinates: [  0.152839517184428,  0.508772392852486,  0.584121154138651 ]
    mass: 15.999400
    reduced_to: 17
  - symbol: O # 18
    coordinates: [  0.152820541587981,  0.008771765691937,  0.584121191295656 ]
    mass: 15.999400
    reduced_to: 18
  - symbol: O # 19
    coordinates: [  0.655381675531703,  0.388411079555754,  0.738359738651827 ]
    mass: 15.999400
    reduced_to: 19
  - symbol: O # 20
    coordinates: [  0.655388164774217,  0.888410346732437,  0.738359912646578 ]
    mass: 15.999400
    reduced_to: 20
  - symbol: O # 21
    coordinates: [  0.653367840218347,  0.366599081977717,  0.635334026145102 ]
    mass: 15.999400
    reduced_to: 21
  - symbol: O # 22
    coordinates: [  0.653372070094336,  0.866599385997328,  0.635334450042519 ]
    mass: 15.999400
    reduced_to: 22
  - symbol: O # 23
    coordinates: [  0.154928245003125,  0.240641701919327,  0.801590219185612 ]
    mass: 15.999400
    reduced_to: 23
  - symbol: O # 24
    coordinates: [  0.154913100295009,  0.740639120992289,  0.801590602609636 ]
    mass: 15.999400
    reduced_to: 24
  - symbol: O # 25
    coordinates: [  0.156362343866872,  0.006772831276286,  0.687175006462308 ]
    mass: 15.999400
    reduced_to: 25
  - symbol: O # 26
    coordinates: [  0.156358212934317,  0.506775294853400,  0.687175110952303 ]
    mass: 15.999400
    reduced_to: 26
  - symbol: O # 27
    coordinates: [  0.760449951284963,  0.374367676989138,  0.531134454700467 ]
    mass: 15.999400
    reduced_to: 27
  - symbol: O # 28
    coordinates: [  0.760434911910766,  0.874366778672403,  0.531133780698977 ]
    mass: 15.999400
    reduced_to: 28
  - symbol: O # 29
    coordinates: [  0.155133395551559,  0.249395860086510,  0.686042750762201 ]
    mass: 15.999400
    reduced_to: 29
  - symbol: O # 30
    coordinates: [  0.155132171836727,  0.749396041864291,  0.686042655972861 ]
    mass: 15.999400
    reduced_to: 30
  - symbol: O # 31
    coordinates: [  0.483364792408654,  0.126921870956443,  0.531778557993241 ]
    mass: 15.999400
    reduced_to: 31
  - symbol: O # 32
    coordinates: [  0.483363952839162,  0.626923827405595,  0.531778243358558 ]
    mass: 15.999400
    reduced_to: 32
  - symbol: O # 33
    coordinates: [  0.155176739044925,  0.020424174832164,  0.788569870425924 ]
    mass: 15.999400
    reduced_to: 33
  - symbol: O # 34
    coordinates: [  0.155166956247730,  0.520423596116348,  0.788569627881335 ]
    mass: 15.999400
    reduced_to: 34
  - symbol: O # 35
    coordinates: [  0.160188966711861,  0.240507617609233,  0.585123883809656 ]
    mass: 15.999400
    reduced_to: 35
  - symbol: O # 36
    coordinates: [  0.160187355037174,  0.740506491927627,  0.585124395206371 ]
    mass: 15.999400
    reduced_to: 36
  - symbol: O # 37
    coordinates: [  0.659739080901385,  0.138125541086338,  0.631846347251229 ]
    mass: 15.999400
    reduced_to: 37
  - symbol: O # 38
    coordinates: [  0.659752517553590,  0.638124805011287,  0.631846750661815 ]
    mass: 15.999400
    reduced_to: 38
  - symbol: O # 39
    coordinates: [  0.655197646421401,  0.122681031149435,  0.740602234567315 ]
    mass: 15.999400
    reduced_to: 39
  - symbol: O # 40
    coordinates: [  0.655191812811395,  0.622677804256071,  0.740602882697328 ]
    mass: 15.999400
    reduced_to: 40
  - symbol: Si # 41
    coordinates: [ -0.144270241927086,  0.880058790727649,  0.235340487713069 ]
    mass: 28.085500
    reduced_to: 41
  - symbol: Si # 42
    coordinates: [ -0.144268627745444,  0.380060122988516,  0.235340327123710 ]
    mass: 28.085500
    reduced_to: 42
  - symbol: Si # 43
    coordinates: [  0.356036116893501,  0.130079676559982,  0.235342681706485 ]
    mass: 28.085500
    reduced_to: 43
  - symbol: Si # 44
    coordinates: [  0.356024241654345,  0.630077482250896,  0.235341434604103 ]
    mass: 28.085500
    reduced_to: 44
  - symbol: Si # 45
    coordinates: [ -0.143589538877296,  0.043553678711332,  0.299108600731105 ]
    mass: 28.085500
    reduced_to: 45
  - symbol: Si # 46
    coordinates: [ -0.143591121547531,  0.543556190089475,  0.299108151503125 ]
    mass: 28.085500
    reduced_to: 46
  - symbol: Si # 47
    coordinates: [  0.355317991893355,  0.793568404633972,  0.299122886675278 ]
    mass: 28.085500
    reduced_to: 47
  - symbol: Si # 48
    coordinates: [  0.355311584343183,  0.293566868340193,  0.299122644788331 ]
    mass: 28.085500
    reduced_to: 48
  - symbol: Si # 49
    coordinates: [ -0.146347923591557,  0.376822051614502,  0.362719714010778 ]
    mass: 28.085500
    reduced_to: 49
  - symbol: Si # 50
    coordinates: [ -0.146334345731995,  0.876820825094681,  0.362719488040045 ]
    mass: 28.085500
    reduced_to: 50
  - symbol: Si # 51
    coordinates: [  0.357765983860576,  0.126726819407771,  0.362693600862912 ]
    mass: 28.085500
    reduced_to: 51
  - symbol: Si # 52
    coordinates: [  0.357761194884863,  0.626723625474523,  0.362694814621857 ]
    mass: 28.085500
    reduced_to: 52
  - symbol: Si # 53
    coordinates: [ -0.135423103372149,  0.213010083692279,  0.426500838458591 ]
    mass: 28.085500
    reduced_to: 53
  - symbol: Si # 54
    coordinates: [ -0.135426905097947,  0.713008730793885,  0.426500389470363 ]
    mass: 28.085500
    reduced_to: 54
  - symbol: Si # 55
    coordinates: [  0.347905816370012,  0.964009848842601,  0.426277531581058 ]
    mass: 28.085500
    reduced_to: 55
  - symbol: Si # 56
    coordinates: [  0.347885738514190,  0.464005784249968,  0.426277723526314 ]
    mass: 28.085500
    reduced_to: 56
  - symbol: Si # 57
    coordinates: [ -0.170934160809435,  0.378868949538171,  0.487777574014149 ]
    mass: 28.085500
    reduced_to: 57
  - symbol: Si # 58
    coordinates: [ -0.170941426698461,  0.878867454871991,  0.487778153914889 ]
    mass: 28.085500
    reduced_to: 58
  - symbol: Si # 59
    coordinates: [  0.386320979882241,  0.631037994725868,  0.491516881614735 ]
    mass: 28.085500
    reduced_to: 59
  - symbol: Si # 60
    coordinates: [  0.386321724236059,  0.131039425538136,  0.491516389218525 ]
    mass: 28.085500
    reduced_to: 60
  - symbol: C # 61
    coordinates: [ -0.143995734361905,  0.215247177722753,  0.220705211029845 ]
    mass: 12.010700
    reduced_to: 61
  - symbol: C # 62
    coordinates: [ -0.144009429714582,  0.715252655409440,  0.220706070683936 ]
    mass: 12.010700
    reduced_to: 62
  - symbol: C # 63
    coordinates: [  0.355785424413689,  0.965261079915163,  0.220713502342956 ]
    mass: 12.010700
    reduced_to: 63
  - symbol: C # 64
    coordinates: [  0.355801112829861,  0.465258795801924,  0.220713681462002 ]
    mass: 12.010700
    reduced_to: 64
  - symbol: C # 65
    coordinates: [ -0.144520163038950,  0.378432260237799,  0.283482385952538 ]
    mass: 12.010700
    reduced_to: 65
  - symbol: C # 66
    coordinates: [ -0.144509290250819,  0.878431962413465,  0.283481823730653 ]
    mass: 12.010700
    reduced_to: 66
  - symbol: C # 67
    coordinates: [  0.356230505557380,  0.128477965836207,  0.283480884865103 ]
    mass: 12.010700
    reduced_to: 67
  - symbol: C # 68
    coordinates: [  0.356236876250263,  0.628475417944869,  0.283480392052607 ]
    mass: 12.010700
    reduced_to: 68
  - symbol: C # 69
    coordinates: [ -0.142877286244051,  0.041725250648304,  0.347350061834790 ]
    mass: 12.010700
    reduced_to: 69
  - symbol: C # 70
    coordinates: [ -0.142886242601993,  0.541723901566310,  0.347349781052017 ]
    mass: 12.010700
    reduced_to: 70
  - symbol: C # 71
    coordinates: [  0.354255574694323,  0.791755067139757,  0.347393764077612 ]
    mass: 12.010700
    reduced_to: 71
  - symbol: C # 72
    coordinates: [  0.354260840501667,  0.291760786936950,  0.347394255960786 ]
    mass: 12.010700
    reduced_to: 72
  - symbol: C # 73
    coordinates: [ -0.149603258595445,  0.878644222374944,  0.410826655560994 ]
    mass: 12.010700
    reduced_to: 73
  - symbol: C # 74
    coordinates: [ -0.149614585271106,  0.378641147219616,  0.410826391837662 ]
    mass: 12.010700
    reduced_to: 74
  - symbol: C # 75
    coordinates: [  0.361807980176436,  0.128486509146829,  0.410742064826987 ]
    mass: 12.010700
    reduced_to: 75
  - symbol: C # 76
    coordinates: [  0.361799026375092,  0.628484820240763,  0.410742088870581 ]
    mass: 12.010700
    reduced_to: 76
  - symbol: C # 77
    coordinates: [  0.334744534006066,  0.465476960113166,  0.474849122582457 ]
    mass: 12.010700
    reduced_to: 77
  - symbol: C # 78
    coordinates: [  0.334734420967754,  0.965477175944917,  0.474849863963494 ]
    mass: 12.010700
    reduced_to: 78
  - symbol: C # 79
    coordinates: [ -0.121706124847184,  0.715295818170627,  0.474559777735192 ]
    mass: 12.010700
    reduced_to: 79
  - symbol: C # 80
    coordinates: [ -0.121706579782712,  0.215297643427715,  0.474559676798186 ]
    mass: 12.010700
    reduced_to: 80
  - symbol: H # 81
    coordinates: [ -0.143695275574009,  0.215122084095322,  0.192520231417561 ]
    mass: 1.007940
    reduced_to: 81
  - symbol: H # 82
    coordinates: [ -0.143702146237759,  0.715120642991505,  0.192520423772988 ]
    mass: 1.007940
    reduced_to: 82
  - symbol: H # 83
    coordinates: [  0.355816622444019,  0.465134837111078,  0.192529086377500 ]
    mass: 1.007940
    reduced_to: 83
  - symbol: H # 84
    coordinates: [  0.355809241256245,  0.965138073839445,  0.192529902129468 ]
    mass: 1.007940
    reduced_to: 84

supercell:
  lattice:
  - [     3.089999914200000,     0.000000000000000,     0.000000000000000 ] # a
  - [     0.000000000000000,    11.270000457800000,     0.000000000000000 ] # b
  - [     0.000000000000000,     0.000000000000000,    39.299999237100003 ] # c
  points:
  - symbol: Ga # 1
    coordinates: [  0.251933457216581,  0.375023212033640,  0.559417647833093 ]
    mass: 69.723000
    reduced_to: 1
  - symbol: Ga # 2
    coordinates: [  0.251915813094427,  0.875028532281669,  0.559417437436284 ]
    mass: 69.723000
    reduced_to: 2
  - symbol: Ga # 3
    coordinates: [  0.655101357279722,  0.254537223333817,  0.711724832060601 ]
    mass: 69.723000
    reduced_to: 3
  - symbol: Ga # 4
    coordinates: [  0.655099633784598,  0.754542705072628,  0.711724736732969 ]
    mass: 69.723000
    reduced_to: 4
  - symbol: Ga # 5
    coordinates: [  0.656526335301480,  0.004663090806043,  0.660398804599990 ]
    mass: 69.723000
    reduced_to: 5
  - symbol: Ga # 6
    coordinates: [  0.656521783168430,  0.504668408151017,  0.660398641797011 ]
    mass: 69.723000
    reduced_to: 6
  - symbol: Ga # 7
    coordinates: [  0.154157349903075,  0.393927778573499,  0.827485335712202 ]
    mass: 69.723000
    reduced_to: 7
  - symbol: Ga # 8
    coordinates: [  0.154171705823961,  0.893928099470565,  0.827485092800160 ]
    mass: 69.723000
    reduced_to: 8
  - symbol: Ga # 9
    coordinates: [  0.154161188745966,  0.260563542561067,  0.636228661325891 ]
    mass: 69.723000
    reduced_to: 9
  - symbol: Ga # 10
    coordinates: [  0.154161169311089,  0.760565789864331,  0.636228164696834 ]
    mass: 69.723000
    reduced_to: 10
  - symbol: Ga # 11
    coordinates: [  0.655015411086711,  0.144677222924387,  0.790102429532884 ]
    mass: 69.723000
    reduced_to: 11
  - symbol: Ga # 12
    coordinates: [  0.654991436425814,  0.644676481288050,  0.790103794477316 ]
    mass: 69.723000
    reduced_to: 12
  - symbol: Ga # 13
    coordinates: [  0.650309037349068,  0.116027969450861,  0.578825138933998 ]
    mass: 69.723000
    reduced_to: 13
  - symbol: Ga # 14
    coordinates: [  0.650333702356927,  0.616031166392220,  0.578824862534905 ]
    mass: 69.723000
    reduced_to: 14
  - symbol: Ga # 15
    coordinates: [  0.155437980540927,  0.492959220779244,  0.738167544795156 ]
    mass: 69.723000
    reduced_to: 15
  - symbol: Ga # 16
    coordinates: [  0.155448653434049,  0.992960372981633,  0.738167611626786 ]
    mass: 69.723000
    reduced_to: 16
  - symbol: O # 17
    coordinates: [  0.152839517184428,  0.508772392852486,  0.584121154138651 ]
    mass: 15.999400
    reduced_to: 17
  - symbol: O # 18
    coordinates: [  0.152820541587981,  0.008771765691937,  0.584121191295656 ]
    mass: 15.999400
    reduced_to: 18
  - symbol: O # 19
    coordinates: [  0.655381675531703,  0.388411079555754,  0.738359738651827 ]
    mass: 15.999400
    reduced_to: 19
  - symbol: O # 20
    coordinates: [  0.655388164774217,  0.888410346732437,  0.738359912646578 ]
    mass: 15.999400
    reduced_to: 20
  - symbol: O # 21
    coordinates: [  0.653367840218347,  0.366599081977717,  0.635334026145102 ]
    mass: 15.999400
    reduced_to: 21
  - symbol: O # 22
    coordinates: [  0.653372070094336,  0.866599385997328,  0.635334450042519 ]
    mass: 15.999400
    reduced_to: 22
  - symbol: O # 23
    coordinates: [  0.154928245003125,  0.240641701919327,  0.801590219185612 ]
    mass: 15.999400
    reduced_to: 23
  - symbol: O # 24
    coordinates: [  0.154913100295009,  0.740639120992289,  0.801590602609636 ]
    mass: 15.999400
    reduced_to: 24
  - symbol: O # 25
    coordinates: [  0.156362343866872,  0.006772831276286,  0.687175006462308 ]
    mass: 15.999400
    reduced_to: 25
  - symbol: O # 26
    coordinates: [  0.156358212934317,  0.506775294853400,  0.687175110952303 ]
    mass: 15.999400
    reduced_to: 26
  - symbol: O # 27
    coordinates: [  0.760449951284963,  0.374367676989138,  0.531134454700467 ]
    mass: 15.999400
    reduced_to: 27
  - symbol: O # 28
    coordinates: [  0.760434911910766,  0.874366778672403,  0.531133780698977 ]
    mass: 15.999400
    reduced_to: 28
  - symbol: O # 29
    coordinates: [  0.155133395551559,  0.249395860086510,  0.686042750762201 ]
    mass: 15.999400
    reduced_to: 29
  - symbol: O # 30
    coordinates: [  0.155132171836727,  0.749396041864291,  0.686042655972861 ]
    mass: 15.999400
    reduced_to: 30
  - symbol: O # 31
    coordinates: [  0.483364792408654,  0.126921870956443,  0.531778557993241 ]
    mass: 15.999400
    reduced_to: 31
  - symbol: O # 32
    coordinates: [  0.483363952839162,  0.626923827405595,  0.531778243358558 ]
    mass: 15.999400
    reduced_to: 32
  - symbol: O # 33
    coordinates: [  0.155176739044925,  0.020424174832164,  0.788569870425924 ]
    mass: 15.999400
    reduced_to: 33
  - symbol: O # 34
    coordinates: [  0.155166956247730,  0.520423596116348,  0.788569627881335 ]
    mass: 15.999400
    reduced_to: 34
  - symbol: O # 35
    coordinates: [  0.160188966711861,  0.240507617609233,  0.585123883809656 ]
    mass: 15.999400
    reduced_to: 35
  - symbol: O # 36
    coordinates: [  0.160187355037174,  0.740506491927627,  0.585124395206371 ]
    mass: 15.999400
    reduced_to: 36
  - symbol: O # 37
    coordinates: [  0.659739080901385,  0.138125541086338,  0.631846347251229 ]
    mass: 15.999400
    reduced_to: 37
  - symbol: O # 38
    coordinates: [  0.659752517553590,  0.638124805011287,  0.631846750661815 ]
    mass: 15.999400
    reduced_to: 38
  - symbol: O # 39
    coordinates: [  0.655197646421401,  0.122681031149435,  0.740602234567315 ]
    mass: 15.999400
    reduced_to: 39
  - symbol: O # 40
    coordinates: [  0.655191812811395,  0.622677804256071,  0.740602882697328 ]
    mass: 15.999400
    reduced_to: 40
  - symbol: Si # 41
    coordinates: [  0.855729758072914,  0.880058790727649,  0.235340487713069 ]
    mass: 28.085500
    reduced_to: 41
  - symbol: Si # 42
    coordinates: [  0.855731372254556,  0.380060122988516,  0.235340327123710 ]
    mass: 28.085500
    reduced_to: 42
  - symbol: Si # 43
    coordinates: [  0.356036116893501,  0.130079676559982,  0.235342681706485 ]
    mass: 28.085500
    reduced_to: 43
  - symbol: Si # 44
    coordinates: [  0.356024241654345,  0.630077482250896,  0.235341434604103 ]
    mass: 28.085500
    reduced_to: 44
  - symbol: Si # 45
    coordinates: [  0.856410461122704,  0.043553678711332,  0.299108600731105 ]
    mass: 28.085500
    reduced_to: 45
  - symbol: Si # 46
    coordinates: [  0.856408878452469,  0.543556190089475,  0.299108151503125 ]
    mass: 28.085500
    reduced_to: 46
  - symbol: Si # 47
    coordinates: [  0.355317991893355,  0.793568404633972,  0.299122886675278 ]
    mass: 28.085500
    reduced_to: 47
  - symbol: Si # 48
    coordinates: [  0.355311584343183,  0.293566868340193,  0.299122644788331 ]
    mass: 28.085500
    reduced_to: 48
  - symbol: Si # 49
    coordinates: [  0.853652076408443,  0.376822051614502,  0.362719714010778 ]
    mass: 28.085500
    reduced_to: 49
  - symbol: Si # 50