24192
Time=700001.00000886 pbc="T T T" Lattice="206.76147193 0.00000000 0.00000000 0.00000000 36.90832980 0.00000000 0.00000000 0.00000000 34.66131275" energy=-164885.26511002 virial="5387.29422301 65.96210659 521.22508995 65.96210659 2953.44526982 5773.60386427 521.22508995 5773.60386427 6328.57029513" stress="0.02607157 0.00025846 0.00196257 0.00025846 0.01690842 0.02181260 0.00196257 0.02181260 0.02958827" Properties=species:S:1:pos:R:3
Ga 195.84775904 0.00000001 30.27745789
Ga 195.84775912 0.00000000 1.39303074
Ga 195.84775907 36.90832980 7.16991630
Ga 195.84775908 0.00000000 12.94680153
Ga 195.84775907 0.00000000 18.72368711
Ga 195.84775908 0.00000001 24.50057268
Ga 193.67302645 1.53784711 31.88901142
Ga 193.67302670 1.53784709 3.00458440
Ga 193.67302650 1.53784705 8.78146995
Ga 193.67302656 1.53784705 14.55835516
Ga 193.67302637 1.53784707 20.33524075
Ga 193.67302625 1.53784710 26.11212637
Ga 196.66321723 1.53784707 33.24904327
Ga 196.66321721 1.53784707 4.36461610
Ga 196.66321721 1.53784707 10.14150133
Ga 196.66321721 1.53784707 15.91838690
Ga 196.66321721 1.53784707 21.69527248
Ga 196.66321720 1.53784707 27.47215770
Ga 192.85758417 0.00000020 28.91742269
Ga 192.85758486 0.00000016 0.03299509
Ga 192.85758439 36.90832979 5.80988084
Ga 192.85758446 0.00000006 11.58676632
Ga 192.85758429 0.00000002 17.36365163
Ga 192.85758414 0.00000013 23.14053712
Ga 201.81165140 1.53784707 31.72821799
Ga 201.81165140 1.53784707 2.84379083
Ga 201.81165140 1.53784707 8.62067605
Ga 201.81165140 1.53784707 14.39756163
Ga 201.81165140 1.53784707 20.17444720
Ga 201.81165140 1.53784707 25.95133243
Ga 199.63692589 0.00000000 33.33975456
Ga 199.63692589 36.90832980 4.45532738
Ga 199.63692589 0.00000000 10.23221261
Ga 199.63692589 0.00000000 16.00909819
Ga 199.63692589 0.00000000 21.78598376
Ga 199.63692589 0.00000000 27.56286899
Ga 202.62720541 0.00000000 0.03849431
Ga 202.62720541 0.00000000 5.81537989
Ga 202.62720541 0.00000000 11.59226546
Ga 202.62720541 0.00000000 17.36915069
Ga 202.62720541 0.00000000 23.14603626
Ga 202.62720541 0.00000000 28.92292184
Ga 198.82148851 1.53784707 30.36820143
Ga 198.82148851 1.53784707 1.48377426
Ga 198.82148851 1.53784707 7.26065983
Ga 198.82148851 1.53784707 13.03754506
Ga 198.82148851 1.53784707 18.81443063
Ga 198.82148851 1.53784707 24.59131621
Ga 183.91998346 0.00004354 27.37592346
Ga 183.91993989 0.00003674 33.15275645
Ga 183.91991857 0.00000852 4.26842965
Ga 183.92001355 0.00000150 10.04525582
Ga 183.91997590 36.90831905 15.82215985
Ga 183.91999140 0.00003189 21.59898198
Ga 181.53028769 1.42565310 28.72834219
Ga 181.80610763 1.60218883 0.03462492
Ga 181.62571819 1.68506064 5.91774250
Ga 181.68809750 1.48716001 11.59288776
Ga 181.72034962 1.52601179 17.28637890
Ga 181.77744823 1.61327286 23.38644611
Ga 184.73536484 1.53785079 30.34748113
Ga 184.73539801 1.53785159 1.46311087
Ga 184.73539078 1.53783962 7.23996169
Ga 184.73539576 1.53784463 13.01684911
Ga 184.73536480 1.53784191 18.79376617
Ga 184.73539989 1.53784829 24.57065341
Ga 180.85060169 36.82622321 25.94626203
Ga 180.87724521 36.76223110 31.62496244
Ga 180.98870654 36.79456449 2.87515371
Ga 180.92920238 0.08012462 8.82549621
Ga 180.76808928 36.84190000 14.46784638
Ga 180.88204816 0.16529893 20.25965868
Ga 189.88385433 1.53784780 28.82669471
Ga 189.88385689 1.53784755 34.60357858
Ga 189.88385676 1.53784705 5.71915293
Ga 189.88385644 1.53784731 11.49603812
Ga 189.88385716 1.53784687 17.27292358
Ga 189.88385634 1.53784737 23.04980889
Ga 187.70912420 0.00000277 30.43824525
Ga 187.70913036 0.00000104 1.55382070
Ga 187.70912224 0.00000064 7.33070548
Ga 187.70912481 0.00000054 13.10759111
Ga 187.70912130 36.90832952 18.88447761
Ga 187.70912412 0.00000132 24.66136164
Ga 190.69929985 0.00000029 31.79828114
Ga 190.69930136 36.90832973 2.91385467
Ga 190.69930021 0.00000006 8.69074014
Ga 190.69929993 0.00000008 14.46762517
Ga 190.69929945 0.00000005 20.24451098
Ga 190.69929940 0.00000020 26.02139646
Ga 186.89367253 1.53785035 27.46666115
Ga 186.89368376 1.53784979 33.24354036
Ga 186.89367931 1.53784511 4.35912130
Ga 186.89368064 1.53784912 10.13600321
Ga 186.89368369 1.53784555 15.91288935
Ga 186.89367587 1.53784633 21.68977434
Ga 171.87456715 36.67270760 24.20050163
Ga 171.83502871 36.83040976 29.95001978
Ga 171.83632395 36.75415578 1.07343164
Ga 171.83643379 0.01980892 7.19095970
Ga 171.94358942 36.80147257 12.96599217
Ga 171.68884747 36.74762574 18.65227842
Ga 169.86788316 1.36377801 26.33416695
Ga 169.64890055 1.38742431 31.76612069
Ga 169.78902873 1.55832916 2.73222788
Ga 169.70453147 1.55452330 8.74349662
Ga 169.72032483 1.63994034 14.50438494
Ga 169.38799436 1.22898934 20.27129692
Ga 172.94169020 1.41566973 27.15287356
Ga 172.74703301 1.45471306 33.03286158
Ga 172.81158337 1.35099324 4.08804679
Ga 172.69798512 1.54737663 10.20251085
Ga 172.56771191 1.26042426 15.87107068
Ga 172.80211471 1.38952740 21.60669683
Ga 168.95996082 36.87943110 23.15458320
Ga 168.67988911 36.66141186 28.73748702
Ga 168.88367852 36.78706972 34.51585008
Ga 169.02795413 0.08914872 5.56632407
Ga 168.80415219 36.79937183 11.67172117
Ga 168.85046353 36.78086406 17.22147276
Ga 177.93322324 1.35846249 25.79068379
Ga 177.96231911 1.48971341 31.66094828
Ga 177.97825731 1.52607861 2.66799306
Ga 177.83616897 1.43753734 8.96088775
Ga 177.92962519 1.34534354 14.47923535
Ga 177.84092197 1.57734236 20.13208745
Ga 175.90573918 36.75572463 27.75893357
Ga 175.54780311 0.01686658 33.32332507
Ga 175.74814493 0.14105528 4.52007179
Ga 175.45122041 36.74347626 10.27607500
Ga 175.41837666 36.87011695 16.07905757
Ga 175.71629724 36.81061082 21.86412357
Ga 178.81197455 36.66901973 28.81937090
Ga 178.76950856 36.86666875 34.55076520
Ga 178.81969449 0.07760852 5.78745299
Ga 178.75827782 36.75890106 11.61699875
Ga 178.94859918 0.08937066 17.40984419
Ga 178.66698480 36.61548965 22.94156278
Ga 175.06892838 1.42365889 24.66836913
Ga 174.88979374 1.26973239 30.20319805
Ga 174.80458158 1.57185188 1.30852390
Ga 175.02080397 1.46858623 7.35587998
Ga 174.64826139 1.46533245 13.09383457
Ga 174.96312510 1.45347798 18.81260402
Ga 159.92675952 36.80753327 21.66261272
Ga 159.80021065 36.89322616 27.40990052
Ga 159.84723279 0.04566607 33.28474935
Ga 159.92652679 0.16337634 4.36779899
Ga 159.83948735 36.85302995 9.97963809
Ga 159.92720379 36.79766475 15.63894003
Ga 157.79394475 1.55310707 23.28424276
Ga 157.62425415 1.65186436 29.03446272
Ga 157.69128014 1.57794162 0.07708694
Ga 157.69668519 1.60333342 5.80428296
Ga 157.68645579 1.50328595 11.35783055
Ga 157.74675899 1.57181435 17.30945133
Ga 160.78815398 1.57624042 24.48805580
Ga 160.66696053 1.50111487 30.43605549
Ga 160.84450150 1.55718405 1.47315470
Ga 160.81893144 1.58222590 7.21590508
Ga 161.04408470 1.79369936 13.04449988
Ga 160.50500713 1.60859293 18.81575682
Ga 157.01358589 0.05428515 20.38467588
Ga 156.85851905 36.89375125 26.20837361
Ga 156.77630591 0.10607320 32.02601063
Ga 156.96094906 0.00654313 2.94899679
Ga 156.91697114 0.05851387 8.68730917
Ga 156.65286382 36.89371194 14.50759717
Ga 165.84855255 1.45662912 23.06399220
Ga 165.57493541 1.26003104 28.68671520
Ga 165.74287673 1.42013742 34.54597318
Ga 165.89683804 1.52154553 5.64418981
Ga 166.11506422 1.65241174 11.83356905
Ga 165.96723996 1.31543272 17.39340020
Ga 163.84253326 0.01655370 24.74321050
Ga 163.58989084 0.09250470 30.49987129
Ga 163.70569078 0.08331958 1.83501736
Ga 163.80766021 0.05726211 7.55888610
Ga 163.83397758 0.07900775 13.08735595
Ga 163.69663913 0.03416219 18.90172209
Ga 166.84461699 36.81477626 26.06533844
Ga 166.60517417 0.07266421 31.75642118
Ga 166.67910468 0.08618086 2.89394003
Ga 166.74156033 36.77676522 8.61336206
Ga 166.86918071 0.02218645 14.48882344
Ga 166.58835280 36.64067302 20.31900911
Ga 162.91747877 1.45801625 21.79036831
Ga 162.68837468 1.66599315 27.44924433
Ga 162.68993600 1.31152135 33.27120163
Ga 163.05092167 1.78275903 4.34133595
Ga 163.15471653 1.47618437 10.29441968
Ga 162.82835338 1.52027982 16.03086965
Ga 147.94231639 36.79771952 18.73115495
Ga 147.86051759 0.08266517 24.58082518
Ga 147.96902737 36.78611153 30.21838315
Ga 147.88253967 0.02311935 1.36961584
Ga 147.85806971 36.85522239 7.18297195
Ga 148.08258740 36.67545251 12.98896949
Ga 145.75749997 1.34820036 20.33270518
Ga 145.69225892 1.44271021 25.94427083
Ga 145.55970582 1.59097913 31.55265420
Ga 145.63379352 1.51838972 3.09561683
Ga 145.60100636 1.65199707 8.74002986
Ga 145.59636851 1.45212104 14.59125739
Ga 148.85973594 1.58544273 21.62330623
Ga 148.81996871 1.37817094 27.42756534
Ga 148.62552817 1.31516146 33.19462291
Ga 148.89265566 1.67677066 4.28037770
Ga 148.65589941 1.55632011 10.16899135
Ga 148.73418256 1.46774022 15.88875315
Ga 144.79503789 36.84841116 17.36176614
Ga 144.82621785 36.90443644 22.96456878
Ga 144.71079702 36.80525986 28.93110740
Ga 144.74210575 36.71103344 34.59175830
Ga 144.79068779 36.85383059 5.84493758
Ga 144.90993335 36.80852073 11.63176100
Ga 154.16179157 1.42208769 19.99510921
Ga 153.90416504 1.45074676 25.93474992
Ga 153.82528826 1.52238488 31.64687793
Ga 153.83844362 1.52394780 2.85826173
Ga 153.55828245 1.49608001 8.36540548
Ga 153.76248856 1.41718507 14.20525766
Ga 151.81377563 0.01834861 21.74143984
Ga 151.91820859 36.81723919 27.58084127
Ga 151.65274876 36.80870572 33.28334911
Ga 151.81525577 0.24196711 4.57459575
Ga 151.72442299 36.89340506 10.27927738
Ga 151.74414083 36.76351188 16.27640903
Ga 154.72451140 0.08549574 23.23804815
Ga 154.72170817 0.08911640 29.05527239
Ga 154.65886845 36.88874007 34.60656120
Ga 154.65488209 36.90733057 5.76779527
Ga 154.85012214 0.06710560 11.36628205
Ga 154.61249899 36.88753868 17.34051037
Ga 150.90024714 1.35204943 18.74490841
Ga 150.78297941 1.45501524 24.71696333
Ga 150.90621023 1.32883161 30.33227071
Ga 150.83034209 1.41221178 1.64243107
Ga 150.81968957 1.58217331 7.25342932
Ga 150.95035264 1.55352903 13.17657952
Ga 135.84750664 0.00998466 15.85233826
Ga 135.95207070 36.79086480 21.45160560
Ga 135.79041521 0.12130877 27.22879889
Ga 135.96092045 36.78214045 33.38118912
Ga 135.92371242 36.87106482 4.12155733
Ga 136.03738491 0.05917499 10.00492094
Ga 133.53726446 1.52418921 17.56249267
Ga 133.74157013 1.61178296 23.39794301
Ga 133.78096955 1.45900277 29.21376125
Ga 133.53701014 1.44214245 0.05700748
Ga 133.72467920 1.50410811 5.91934657
Ga 133.59213542 1.66086625 11.80355159
Ga 136.44746264 1.67937760 18.81182357
Ga 136.84136162 1.58658712 24.41004837
Ga 136.98792820 1.41866334 30.21076547
Ga 136.97598228 1.62252707 1.39066487
Ga 136.72659248 1.67068265 7.22335839
Ga 136.54194131 1.86594047 12.93957570
Ga 132.63708297 36.82875709 14.47698956
Ga 132.88261215 0.17567511 20.31655978
Ga 132.85686063 36.86631335 26.04784595
Ga 132.88143683 0.11308524 31.80386587
Ga 132.75024521 36.88092425 2.96755930
Ga 132.85730756 0.05717095 8.75860209
Ga 141.91454163 1.51060898 17.34614883
Ga 141.95620077 1.47933213 22.97032891
Ga 141.82665699 1.43562213 28.77077368
Ga 141.85093991 1.65496787 0.00039157
Ga 141.92871463 1.63617212 5.76265038
Ga 142.01999638 1.61666654 11.45905332
Ga 139.86494792 36.85345918 18.95899697
Ga 139.77349798 36.83577100 24.55380312
Ga 139.87601035 36.76635469 30.40640194
Ga 139.72539768 0.11504320 1.40412700
Ga 139.70322199 0.01909038 7.53407714
Ga 139.50722482 0.05923482 13.30615652
Ga 142.71838443 36.85970311 20.36799279
Ga 142.92264603 36.85673727 25.83422185
Ga 142.64297404 36.82059489 31.72224370
Ga 142.63612056 36.79084331 2.97557270
Ga 142.76918843 36.88751633 8.66603844
Ga 142.73418009 36.85650133 14.52409875
Ga 138.73841878 1.59009031 16.07494254
Ga 138.85921490 1.45049165 21.75914361
Ga 138.63462237 1.45568974 27.29690390
Ga 139.10543936 1.42049075 33.17065844
Ga 138.87604683 1.51677884 4.40301160
Ga 138.87097498 1.78472751 10.25639900
Ga 123.71359654 0.04867516 13.08796201
Ga 123.90145978 36.77827960 18.80075145
Ga 123.95805317 36.90009397 24.61381603
Ga 123.75807176 0.11210337 30.43201422
Ga 124.02837400 36.90217225 1.50466307
Ga 123.94489581 0.08281051 7.28560052
Ga 121.36688964 1.53966571 14.91208024
Ga 121.65688108 1.55011588 20.28126099
Ga 121.69204356 1.46766300 26.21090304
Ga 121.70030646 1.52279071 31.94833567
Ga 121.79383906 1.37798697 3.04388985
Ga 121.58875324 1.58466782 8.85224117
Ga 124.66300432 1.44139931 16.04927226
Ga 124.58096058 1.50003015 21.69868641
Ga 124.63102324 1.54309996 27.59250487
Ga 124.68026134 1.49943405 33.47709590
Ga 124.80434622 1.69367689 4.42073121
Ga 124.75343118 1.71353454 10.17775810
Ga 120.94758051 36.87859800 11.72033494
Ga 120.92689446 0.02001542 17.53679496
Ga 120.87484074 36.75516283 23.22210020
Ga 120.75461900 0.09505709 28.94741598
Ga 120.74616581 0.02108300 0.22430618
Ga 121.01950792 0.01468016 5.89186553
Ga 129.84938087 1.65983363 14.46127970
Ga 129.70789015 1.46117930 20.30252853
Ga 129.81009275 1.24220811 25.90765411
Ga 129.73595381 1.33422419 31.78398985
Ga 129.92566615 1.33953632 3.05652420
Ga 129.92491834 1.29428430 8.62054514
Ga 127.62479543 36.80447894 16.06177583
Ga 127.43483394 36.78178189 21.88646712
Ga 127.73631262 0.11853892 27.85261261
Ga 127.73003050 36.90402833 33.58362925
Ga 127.62638937 36.74584397 4.60188109
Ga 127.85230121 36.87342130 10.18222430
Ga 130.69527593 36.85324760 17.53522432
Ga 130.62234158 36.75730956 23.18301677
Ga 130.92791352 36.77759983 29.04072233
Ga 130.64808535 0.05150836 0.20919323
Ga 130.85692263 36.77827962 5.83451571
Ga 130.84066523 36.84417258 11.83117596
Ga 126.87842680 1.66952607 13.12162984
Ga 126.63806811 1.50182549 18.80613488
Ga 126.66445041 1.52032948 24.68471822
Ga 126.88273277 1.55956043 30.41197983
Ga 127.04496298 1.49903994 1.48272132
Ga 126.86061475 1.56179789 7.25974066
Ga 111.87605250 36.68551947 10.18655988
Ga 111.63079517 36.89960835 15.85975693
Ga 111.84515049 0.20676930 21.86562614
Ga 111.77960424 0.01938714 27.56322869
Ga 111.89078787 0.18740978 33.15108075
Ga 111.64245256 36.80456767 4.21632694
Ga 109.81234566 1.44376333 12.01771340
Ga 109.37337992 1.46390429 17.69450847
Ga 109.51468170 1.63657911 23.47249169
Ga 109.73813413 1.46690316 29.04535116
Ga 109.77960021 1.56280280 0.30607068
Ga 109.86452749 1.37895142 6.31276721
Ga 112.93970990 1.53554147 13.00904534
Ga 112.59223957 1.59250753 18.90990018
Ga 112.67256040 1.69936680 24.64101269
Ga 112.77482450 1.62856199 30.49743716
Ga 112.54324644 1.35486081 1.60514747
Ga 112.56157220 1.59908626 7.36119891
Ga 108.67147127 36.85649296 9.08279454
Ga 108.56388119 36.82594421 14.55406447
Ga 108.84177636 36.70798462 20.45674883
Ga 108.75597085 0.10680678 26.06473927
Ga 108.77838676 0.24150048 31.94840083
Ga 108.94272532 36.86545356 3.15251297
Ga 117.94407288 1.37210169 11.47112973
Ga 117.90040940 1.51992725 17.35655422
Ga 117.70553352 1.48054508 23.18207198
Ga 117.76333282 1.52967905 28.80062883
Ga 117.86127791 1.49664506 34.55149860
Ga 117.92126921 1.49217937 5.87805789
Ga 115.77815380 36.75430393 13.26887751
Ga 115.50549655 0.10865144 19.01765134
Ga 115.56680765 0.04423466 24.89173450
Ga 115.64348488 0.03354659 30.64131204
Ga 115.69660275 0.13330130 1.69301747
Ga 115.73679686 36.85334398 7.40550113
Ga 118.55357070 36.86239771 14.84245991
Ga 118.29811120 0.09186903 20.32394423
Ga 118.49276875 0.10843718 26.12680260
Ga 118.75301956 36.86859931 31.85629033
Ga 118.74382160 0.14233554 3.03443346
Ga 118.62160926 36.83250080 8.82705764
Ga 114.75630024 1.55531195 10.29900166
Ga 114.83036409 1.53893491 16.00623531
Ga 114.71760964 1.59058720 21.75462608
Ga 114.84479820 1.48952525 27.49062896
Ga 114.81839052 1.57014364 33.36407364
Ga 114.83893876 1.57263119 4.41659073
Ga 100.09667580 36.75999135 7.16532543
Ga 99.60333381 36.73485041 13.11726891
Ga 99.53361936 0.13499223 19.19660603
Ga 100.10878235 0.08908057 24.88671593
Ga 100.24147102 36.83602075 30.68043478
Ga 99.94659164 0.00312086 1.55897514
Ga 97.26931721 2.59020956 8.97302333
Ga 97.14777746 0.79289876 14.65336675
Ga 97.01588609 0.50538687 21.19990017
Ga 97.25714678 0.13388842 26.89315420
Ga 97.50734015 0.20495604 32.56705624
Ga 97.13018800 2.78034255 3.39846952
Ga 100.50468227 1.32753268 10.21965592
Ga 100.29595702 1.50828595 16.14414704
Ga 100.85260390 1.53165556 21.89854775
Ga 100.78486746 1.71043129 27.81880008
Ga 101.09173478 1.52642724 33.53233291
Ga 100.90557190 1.39719379 4.47825711
Ga 97.19037431 1.33998236 6.08538021
Ga 96.92560169 1.29022826 11.65168564
Ga 97.00523767 35.81933490 18.17480614
Ga 97.61917188 35.59707823 23.93696096
Ga 97.18146480 35.58543024 29.89757230
Ga 96.94650215 35.43443608 0.67720800
Ga 105.77253532 1.43205702 8.73322057
Ga 105.65825435 1.45392834 14.50606697
Ga 106.02309572 1.34053660 20.17591188
Ga 105.93327914 1.52152991 26.20258199
Ga 105.99349181 1.58322662 32.00784302
Ga 105.80110577 1.57876011 2.96545872
Ga 103.54588433 36.79295694 10.69677399
Ga 103.54759334 36.80089436 16.25394738
Ga 103.66752237 0.18237374 22.00817407
Ga 103.78037267 0.21298114 27.76633979
Ga 103.85324313 36.90373420 33.41029203
Ga 103.87980912 36.70959617 4.80220997
Ga 106.66408962 36.72482109 11.79143553
Ga 106.57782318 36.81258652 17.54761163
Ga 106.78943776 36.72202273 23.25797555
Ga 106.93442159 36.85011701 29.09816362
Ga 106.76579892 36.85308603 0.24138735
Ga 106.82056363 0.03879686 6.07734349
Ga 103.03024611 1.44448095 7.48331103
Ga 102.54533307 1.29703872 13.40037947
Ga 102.55293527 1.60640869 19.02217911
Ga 102.98433712 1.55598661 24.79286320
Ga 103.02061683 1.54269545 30.44595618
Ga 102.86000668 1.50908483 1.57099713
Si 11.53154783 0.15766455 31.10629593
Si 11.53154785 1.81380748 28.44004096
Si 11.53154787 0.39425635 25.77378606
Si 11.53154781 2.05039941 23.10753147
Si 11.53154796 0.63084826 20.44127651
Si 11.53154804 2.28699124 17.77502154
Si 11.53154803 0.86744013 15.10876699
Si 11.53154808 2.52358312 12.44251214
Si 11.53154796 1.10403195 9.77625718
Si 11.53154788 2.76017500 7.11000260
Si 11.53154785 1.34062385 4.44374765
Si 11.53154784 2.99676680 1.77749265
Si 11.53154783 1.57721565 33.77255056
Si 6.49585833 1.73507640 30.21756395
Si 6.49585833 0.31552526 27.55130903
Si 6.49585833 1.97166827 24.88505443
Si 6.49585833 0.55211713 22.21879951
Si 6.49585833 2.20826014 19.55254458
Si 6.49585833 0.78870900 16.88628998
Si 6.49585833 2.44485197 14.22003504
Si 6.49585833 1.02530083 11.55378012
Si 6.49585833 2.68144384 8.88752552
Si 6.49585833 1.26189270 6.22127059
Si 6.49585833 2.91803571 3.55501567
Si 6.49585833 1.49848457 0.88876107
Si 6.49585833 0.07893343 32.88381889
Si 14.04867899 1.65620761 31.99506734
Si 14.04867876 0.23665644 29.32881255
Si 14.04867894 1.89279932 26.66255826
Si 14.04867887 0.47324792 23.99630310
Si 14.04867874 2.12939132 21.33004784
Si 14.04867947 0.70984033 18.66379296
Si 14.04868088 2.36598322 15.99753807
Si 14.04868006 0.94643244 13.33128385
Si 14.04867983 2.60257494 10.66502939
Si 14.04867910 1.18302399 7.99877431
Si 14.04867903 2.83916693 5.33251915
Si 14.04867862 1.41961589 2.66626434
Si 14.04867878 0.00006450 0.00000960
Si 9.01333817 1.65607304 31.99504771
Si 9.01333816 0.23652190 29.32879313
Si 9.01333816 1.89266491 26.66253820
Si 9.01333816 0.47311373 23.99628326
Si 9.01333816 2.12925674 21.33002867
Si 9.01333815 0.70970560 18.66377374
Si 9.01333814 2.36584861 15.99751880
Si 9.01333816 0.94629747 13.33126387
Si 9.01333815 2.60244048 10.66500929
Si 9.01333817 1.18288930 7.99875435
Si 9.01333817 2.83903231 5.33249942
Si 9.01333816 1.41948117 2.66624483
Si 9.01333816 36.90825983 34.66130265
Si 21.60214299 0.15768793 31.10630900
Si 21.60186694 1.81381001 28.44006765
Si 21.60193265 0.39421616 25.77380116
Si 21.60216376 2.05044415 23.10749068
Si 21.60227399 0.63084049 20.44129351
Si 21.60193179 2.28697248 17.77491425
Si 21.60181673 0.86744854 15.10870448
Si 21.60203725 2.52356830 12.44244596
Si 21.60201257 1.10412631 9.77628420
Si 21.60228670 2.76013314 7.11006488
Si 21.60216239 1.34058420 4.44371151
Si 21.60194459 2.99672055 1.77751716
Si 21.60222772 1.57721335 33.77248720
Si 16.56687264 1.73506976 30.21756333
Si 16.56687452 0.31551857 27.55131147
Si 16.56686784 1.97165959 24.88505750
Si 16.56686965 0.55211036 22.21880167
Si 16.56686744 2.20825407 19.55254380
Si 16.56687278 0.78870308 16.88628881
Si 16.56687832 2.44484561 14.22003501
Si 16.56687811 1.02529593 11.55378103
Si 16.56687464 2.68143550 8.88752932
Si 16.56687020 1.26188464 6.22127359
Si 16.56686911 2.91803012 3.55501744
Si 16.56686895 1.49847817 0.88876289
Si 16.56686652 0.07892567 32.88381882
Si 24.13642515 1.50486486 32.01691232
Si 24.09891845 0.34930809 29.36640430
Si 24.07629234 1.78575505 26.60117756
Si 23.95208669 0.59237648 24.06103725
Si 24.07820565 2.26483189 21.16393483
Si 24.04881377 0.74079807 18.59628853
Si 24.09721957 2.33314931 15.81693067
Si 24.15613859 0.84592901 13.37955622
Si 24.17027895 2.74784165 10.58807904
Si 24.03911759 1.17750518 8.12564820
Si 24.12275978 2.74279152 5.40375998
Si 24.13447302 1.44334230 2.64597760
Si 23.95392723 0.04495784 34.58622567
Si 19.08401584 1.65607896 31.99504481
Si 19.08401703 0.23652718 29.32879356
Si 19.08400618 1.89266145 26.66254154
Si 19.08399884 0.47312061 23.99628473
Si 19.08400034 2.12926442 21.33002694
Si 19.08400026 0.70971252 18.66377334
Si 19.08401338 2.36585234 15.99750112
Si 19.08401265 0.94629966 13.33125864
Si 19.08403269 2.60244987 10.66500441
Si 19.08400820 1.18289547 7.99876444
Si 19.08399846 2.83903499 5.33250870
Si 19.08402014 1.41948884 2.66624678
Si 19.08399507 36.90826412 34.66129832
Si 31.73350330 0.31820232 31.22099815
Si 31.63165097 1.86975861 28.53437832
Si 31.61040323 0.46790099 25.70347171
Si 31.63365884 2.01293020 23.01365012
Si 31.53176179 0.65602109 20.41454920
Si 31.77043702 2.36244239 17.65830950
Si 31.53755119 0.82116153 15.07530058
Si 31.64644271 2.50712586 12.28606441
Si 31.69053094 1.11307929 9.69424888
Si 31.56398035 2.86351455 7.08903650
Si 31.71596216 1.45685812 4.42381807
Si 31.74659498 3.06617972 1.74089769
Si 31.58794210 1.67200140 33.71482416
Si 26.59754129 1.86873620 30.30671787
Si 26.58919947 0.46991206 27.61294008
Si 26.53012916 1.94138226 24.66518624
Si 26.52669535 0.60063653 22.22583139
Si 26.50920250 2.36259850 19.43358484
Si 26.71229461 0.90895938 16.83485794
Si 26.64826546 2.56245159 14.18773263
Si 26.65359666 1.07016533 11.46884881
Si 26.64707661 2.63976897 8.76605574
Si 26.59349529 1.21464164 6.16858078
Si 26.73701479 2.84322238 3.53971983
Si 26.43802167 1.47400124 0.91187269
Si 26.65828927 0.11898949 32.88005852
Si 34.10648344 1.84802768 31.87832427
Si 34.11692097 0.20563309 29.35688572
Si 33.96417516 2.11061691 26.74376149
Si 33.89373295 0.50164202 23.98215526
Si 34.02955521 2.11099346 21.25449861
Si 34.26739255 0.69546879 18.64801380
Si 34.10665954 2.30033817 15.91174543
Si 34.16431629 0.97051283 13.30935389
Si 34.25005142 2.50292970 10.57411996
Si 34.04543243 1.26658889 7.92620847
Si 34.26310382 2.86832571 5.26445261
Si 33.98212588 1.38824258 2.65740566
Si 34.09780518 0.03698831 34.52962942
Si 28.94793566 1.74881769 31.95979321
Si 29.06073779 0.27362037 29.32367395
Si 29.13550054 1.98650956 26.50758784
Si 29.20374993 0.39068173 24.03994357
Si 28.98103816 2.17587114 21.37365148
Si 29.08748050 0.66805327 18.64141695
Si 29.20392636 2.41905181 15.93312012
Si 29.23855631 0.93906550 13.11491587
Si 29.17819666 2.57494207 10.63993448
Si 29.22600077 1.25332444 7.90996527
Si 29.12990452 2.84332137 5.34516406
Si 29.08134477 1.44415018 2.66978188
Si 29.18621266 0.13261016 34.65590367
Si 41.70716293 0.13177083 31.00773423
Si 41.66583102 1.84254881 28.46647223
Si 41.66983333 0.44829281 25.75404647
Si 41.63595065 1.94738507 23.07780786
Si 41.60249562 0.62385454 20.46450866
Si 41.72954701 2.33686521 17.74703987
Si 41.69251582 0.83689663 15.11001229
Si 41.62592649 2.54151544 12.37825062
Si 41.61010193 1.01691444 9.76072067
Si 41.68474269 2.82600049 7.07444274
Si 41.57072272 1.32453149 4.42468736
Si 41.60444251 3.00625945 1.65776248
Si 41.63388829 1.61498586 33.56317994
Si 36.63852275 1.71790125 29.98015379
Si 36.52072361 0.40449905 27.42694301
Si 36.54002240 2.05536330 24.90503142
Si 36.45916794 0.57678498 22.10612236
Si 36.58478875 2.43465764 19.46618301
Si 36.52255668 0.76994209 16.78548575
Si 36.75327109 2.38033175 14.06876571
Si 36.63384184 1.03159527 11.52570375
Si 36.64065147 2.68296962 8.86090424
Si 36.57630766 1.30167872 6.29822626
Si 36.58531214 2.90022218 3.43102025
Si 36.56250202 1.67729329 0.95671106
Si 36.70480602 0.26004023 32.91586455
Si 44.09538028 1.64873865 31.94527063
Si 44.21232258 0.21937913 29.24814069
Si 44.10477903 1.91797043 26.52086015
Si 44.10463931 0.54227269 23.91405003
Si 44.06725882 2.11814071 21.25822509
Si 44.16073659 0.76974959 18.65984987
Si 44.12411619 2.41000537 15.93851168
Si 44.04983584 0.84040043 13.24884689
Si 44.16774702 2.66827306 10.59471817
Si 44.20947058 1.13167535 8.03262246
Si 44.08741503 2.87253515 5.18217994
Si 44.15354230 1.41252903 2.57843975
Si 44.25368377 36.82692375 34.51435895
Si 39.04645881 1.74546443 31.87911460
Si 39.28210560 0.39961946 29.24568882
Si 39.05110643 2.11051390 26.64206717
Si 38.99653889 0.45104208 23.82197711
Si 39.07017866 2.22957779 21.21058329
Si 39.06766979 0.80649661 18.57650287
Si 39.10913230 2.30565188 15.90539396
Si 39.20255332 0.81676976 13.25657788
Si 39.05321563 2.51981321 10.58439599
Si 39.10453154 1.09948851 8.07470290
Si 39.05904665 2.74814478 5.37288741
Si 39.01149130 1.42714326 2.74959318
Si 39.14399728 0.00720891 34.52652379
Si 51.51398498 0.03082230 30.81161329
Si 51.58157690 1.75811926 28.27798339
Si 51.75763884 0.42135942 25.76487272
Si 51.65397625 1.98034176 22.94658505
Si 51.77016361 0.57016792 20.37837875
Si 51.71740837 2.43051777 17.77567930
Si 51.59528652 0.86161679 15.05888432
Si 51.77818834 2.43078398 12.28558116
Si 51.66159137 1.14924289 9.56566650
Si 51.71240181 2.55845151 6.98238393
Si 51.81127144 1.27843442 4.29282117
Si 51.69699598 2.97901389 1.63537253
Si 51.58871024 1.61887129 33.41025741
Si 46.63806493 1.79676708 30.05772838
Si 46.48378937 0.48262511 27.51385886
Si 46.83518516 2.02329895 24.70365744
Si 46.61885912 0.64522858 22.03841892
Si 46.68596434 2.23709352 19.49985813
Si 46.65445350 0.87198118 16.63179070
Si 46.64459489 2.38943585 14.12515131
Si 46.62745123 1.05701637 11.47382596
Si 46.60683736 2.77405101 8.74448982
Si 46.70719248 1.32661367 6.16643158
Si 46.68434396 3.02012577 3.47976252
Si 46.63028665 1.46706707 0.88014905
Si 46.66818736 0.01232182 32.70249519
Si 54.09222152 1.48838678 31.79159630
Si 54.27317296 0.26795235 29.02247092
Si 54.16777347 1.83236208 26.40042532
Si 54.10073957 0.45759173 23.82486156
Si 54.32975492 2.20704071 21.29723720
Si 54.21236679 0.79809343 18.50080294
Si 54.13504591 2.31436801 15.76069399
Si 54.16383134 0.79916931 13.20236088
Si 54.21399416 2.62747364 10.60732194
Si 54.24786948 1.08849315 7.77810266
Si 54.22378501 2.91093149 5.31580772
Si 54.25975475 1.41064315 2.52238054
Si 54.13691442 0.06410004 34.52432430
Si 49.12290948 1.53035391 31.73804942
Si 49.03787736 0.33345854 29.15207720
Si 49.02827104 1.83131165 26.52606322
Si 49.21290244 0.28434891 23.87782391
Si 49.11903152 2.05764356 21.29394128
Si 49.17393999 0.85536592 18.49161485
Si 49.07447843 2.50171819 15.76581607
Si 49.20682580 0.87698919 13.30148305
Si 49.23699661 2.68200460 10.45303471
Si 49.20479076 1.20441381 7.79742870
Si 49.22767492 2.95977766 5.13886224
Si 49.17123842 1.39960656 2.69779024
Si 49.12484625 0.18068227 34.63511484
Si 61.67601778 0.14567347 30.86183005
Si 61.80011184 1.69406773 28.11552151
Si 61.89671732 0.39802200 25.46679286
Si 61.64722136 1.84454491 22.93637469
Si 61.80215312 0.53010214 20.17538059
Si 61.75391642 2.21641964 17.61114361
Si 61.83268777 0.81683487 14.83553713
Si 61.65413896 2.46807326 12.17656131
Si 61.77508553 1.08870365 9.47775001
Si 61.76033723 2.71411371 6.95882534
Si 61.82013378 1.29259546 4.26728826
Si 61.62971231 2.81301212 1.56479361
Si 61.68340377 1.58708482 33.54675200
Si 56.63846742 1.75671283 29.93311681
Si 56.71994051 0.32808720 27.39711106
Si 56.64758508 1.99447348 24.69648444
Si 56.57558506 0.60611157 22.14917664
Si 56.75102512 2.27805717 19.32293554
Si 56.85480831 0.79455693 16.54805287
Si 56.86197130 2.47857712 13.98084222
Si 56.66666512 1.05944982 11.27278268
Si 56.78217043 2.75318979 8.67407313
Si 56.79149881 1.38082867 6.04742261
Si 56.80462281 3.00943710 3.31855415
Si 56.71647121 1.59457582 0.71166154
Si 56.52366635 0.10867716 32.73196017
Si 64.29335683 1.70582402 31.68427912
Si 64.25633999 0.31530663 29.14591238
Si 64.21396379 1.90008974 26.40411323
Si 64.25390242 0.41180185 23.71788151
Si 64.14595525 2.01384376 21.11675589
Si 64.21226335 0.60703885 18.43983860
Si 64.28584572 2.23648651 15.80454939
Si 64.20534168 1.02211798 12.91156626
Si 64.22079217 2.53589806 10.35765611
Si 64.18758955 0.97622116 7.68678951
Si 64.30261284 2.80631515 5.07567519
Si 64.30688598 1.49690806 2.53379045
Si 64.39857667 36.90143519 34.52562038
Si 59.14054878 1.57447149 31.79913031
Si 59.27563083 0.18987470 29.10772131
Si 59.19611362 1.80509829 26.39484176
Si 59.14446596 0.39710739 23.71488205
Si 59.21839507 2.05233830 21.19815917
Si 59.24917605 0.69201932 18.45709817
Si 59.26532067 2.19293288 15.81414143
Si 59.23251435 0.77615201 13.02149722
Si 59.31583785 2.62034558 10.40603762
Si 59.22416592 1.22171626 7.70377764
Si 59.19032165 2.89955813 5.11700609
Si 59.36613518 1.34693318 2.48278706
Si 59.21723279 0.03474381 34.41488390
Si 71.80856043 0.15078589 30.98251797
Si 71.77230307 1.57726889 28.06343445
Si 71.78329319 0.27887209 25.63444712
Si 71.81382808 1.94809368 22.95166421
Si 71.70435903 0.48459908 20.21564490
Si 71.69476730 2.03258249 17.60464227
Si 71.87955587 0.78874919 14.89742831
Si 71.70263507 2.52043554 12.32646503
Si 71.66769732 0.96854446 9.60742633
Si 71.75168897 2.64876328 6.94624349
Si 71.69925815 1.22736679 4.15408925
Si 71.62800959 3.02976117 1.51789598
Si 71.75037562 1.53142304 33.52717180
Si 66.70334002 1.84053567 30.01477992
Si 66.63639315 0.50040883 27.49787873
Si 66.69380870 2.05236683 24.64150561
Si 66.67188840 0.45155519 22.09637368
Si 66.75816050 2.21738351 19.32541591
Si 66.68699421 0.71087707 16.67828324
Si 66.64861525 2.49089004 14.13561231
Si 66.92375527 0.99565171 11.33716142
Si 66.75177162 2.60205345 8.56749716
Si 66.82738789 1.26427650 5.88889036
Si 66.94745220 2.94679799 3.35420201
Si 66.78698153 1.63911011 0.80238159
Si 66.57880896 0.12576938 32.84695314