
***************************************************************
*                 Welcome to use GPUMD                        *
*     (Graphics Processing Units Molecular Dynamics)          *
*                     version 4.4                             *
*              This is the gpumd executable                   *
***************************************************************


---------------------------------------------------------------
Compiling options:
---------------------------------------------------------------

DEBUG is off: Use different PRNG seeds for different runs.

---------------------------------------------------------------
GPU information:
---------------------------------------------------------------

number of GPUs = 2
Device id:                   0
    Device name:             NVIDIA H100 NVL
    Compute capability:      9.0
    Amount of global memory: 93.1221 GB
    Number of SMs:           132
Device id:                   1
    Device name:             NVIDIA H100 NVL
    Compute capability:      9.0
    Amount of global memory: 93.1221 GB
    Number of SMs:           132
GPU-0 can access GPU-1.
GPU-1 can access GPU-0.

---------------------------------------------------------------
Started running GPUMD.
---------------------------------------------------------------


---------------------------------------------------------------
Started initializing positions and related parameters.
---------------------------------------------------------------

Number of atoms is 24192.
Use periodic boundary conditions along x.
Use periodic boundary conditions along y.
Use periodic boundary conditions along z.
Box matrix h = [a, b, c] is
    2.0676147193e+02    0.0000000000e+00    0.0000000000e+00
    0.0000000000e+00    3.6908329800e+01    0.0000000000e+00
    0.0000000000e+00    0.0000000000e+00    3.4661312750e+01
Inverse box matrix g = inv(h) is
    4.8364910090e-03    0.0000000000e+00    0.0000000000e+00
    0.0000000000e+00    2.7094154773e-02    0.0000000000e+00
    0.0000000000e+00    0.0000000000e+00    2.8850609532e-02
Do not specify initial velocities here.
Have 1 grouping method(s).
There are 7 groups of atoms in grouping method 0.
    1344 atoms in group 0.
    1248 atoms in group 1.
    16560 atoms in group 2.
    1248 atoms in group 3.
    1272 atoms in group 4.
    1224 atoms in group 5.
    1296 atoms in group 6.
There are 5 atom types.
    5184 atoms of type 0.
    7776 atoms of type 1.
    5616 atoms of type 2.
    5616 atoms of type 3.
    0 atoms of type 4.
Initialized velocities with default T = 300 K.

---------------------------------------------------------------
Finished initializing positions and related parameters.
---------------------------------------------------------------


---------------------------------------------------------------
Started executing the commands in run.in.
---------------------------------------------------------------

Try to use 2 GPUs for the NEP part.
Use the NEP4 potential with 5 atom types.
    type 0 (Ga with Z = 31).
    type 1 (O with Z = 8).
    type 2 (Si with Z = 14).
    type 3 (C with Z = 6).
    type 4 (H with Z = 1).
    radial cutoff = 9 A.
    angular cutoff = 6 A.
    MN_radial = 338.
    MN_angular = 103.
    enlarged MN_radial = 423.
    enlarged MN_angular = 129.
    n_max_radial = 10.
    n_max_angular = 8.
    basis_size_radial = 12.
    basis_size_angular = 10.
    l_max_3body = 4.
    l_max_4body = 2.
    l_max_5body = 0.
    ANN = 56-96-1.
    number of neural network parameters = 27841.
    number of descriptor parameters = 6050.
    total number of parameters = 33891
Time step for this run is 1 fs.
Initialized velocities with input T = 600 K.
Use NVT ensemble for this run.
    choose the Berendsen method.
    initial temperature is 600 K.
    final temperature is 600 K.
    tau_T is 100 time_step.
Group 0 in grouping method 0 will be fixed.
Dump thermo every 10000 steps.
Run 200000 steps.
    20000 steps completed.
    40000 steps completed.
    60000 steps completed.
    80000 steps completed.
    100000 steps completed.
    120000 steps completed.
    140000 steps completed.
    160000 steps completed.
    180000 steps completed.
    200000 steps completed.

---------------------------------------------------------------
Time used for this run = 1814.42 second.
Speed of this run = 2.66664e+06 atom*step/second.
---------------------------------------------------------------

Integrate with heating and cooling for this run.
    choose the Langevin method.
    average temperature is 600 K.
    tau_T is 100 time_step.
    delta_T is 10 K.
    T_hot is 610 K.
    T_cold is 590 K.
    heat source is group 1 in grouping method 0.
    heat sink is group 6 in grouping method 0.
Group 0 in grouping method 0 will be fixed.
Dump thermo every 10000 steps.
Run 2000000 steps.
    200000 steps completed.
    400000 steps completed.
    600000 steps completed.
    800000 steps completed.
    1000000 steps completed.
    1200000 steps completed.
    1400000 steps completed.
    1600000 steps completed.
    1800000 steps completed.
    2000000 steps completed.

---------------------------------------------------------------
Time used for this run = 18299.6 second.
Speed of this run = 2.644e+06 atom*step/second.
---------------------------------------------------------------

Compute SHC.
    sampling interval for SHC is 10.
    number of correlation data is 1000.
    transport direction is x.
    num_omega for SHC is 4000.
    max_omega for SHC is 320.
    grouping method is 0 and group ID is 5.
Compute space and/or time average of:
    temperature
    using grouping method 0.
    with sampling interval 1.
    and output interval 200000.
Group 0 in grouping method 0 will be fixed.
Dump thermo every 10000 steps.
Run 10000000 steps.
    1000000 steps completed.
    2000000 steps completed.
    3000000 steps completed.
    4000000 steps completed.
    5000000 steps completed.
    6000000 steps completed.
    7000000 steps completed.
    8000000 steps completed.
    9000000 steps completed.
    10000000 steps completed.

---------------------------------------------------------------
Time used for this run = 91497.5 second.
Speed of this run = 2.64401e+06 atom*step/second.
---------------------------------------------------------------


---------------------------------------------------------------
Finished executing the commands in run.in.
---------------------------------------------------------------


---------------------------------------------------------------
Time used = 111611.973093 s.
---------------------------------------------------------------


---------------------------------------------------------------
Finished running GPUMD.
---------------------------------------------------------------

