24192
Time=700001.00000886 pbc="T T T" Lattice="206.76147193 0.00000000 0.00000000 0.00000000 36.90832980 0.00000000 0.00000000 0.00000000 34.66131275" energy=-166466.70948410 virial="3827.29872632 75.04276291 552.05900496 75.04276291 226.63254112 5838.88868368 552.05900496 5838.88868368 4317.58414571" stress="0.01640194 0.00028373 0.00209121 0.00028373 0.00278329 0.02208415 0.00209121 0.02208415 0.01824978" Properties=species:S:1:pos:R:3
Ga 195.84775907 0.00000000 30.27745791
Ga 195.84775905 0.00000000 1.39303072
Ga 195.84775906 36.90832980 7.16991630
Ga 195.84775904 36.90832980 12.94680153
Ga 195.84775907 36.90832980 18.72368710
Ga 195.84775910 0.00000000 24.50057268
Ga 193.67302636 1.53784709 31.88901157
Ga 193.67302635 1.53784707 3.00458437
Ga 193.67302634 1.53784705 8.78146999
Ga 193.67302637 1.53784703 14.55835518
Ga 193.67302650 1.53784708 20.33524073
Ga 193.67302647 1.53784711 26.11212635
Ga 196.66321721 1.53784707 33.24904328
Ga 196.66321722 1.53784707 4.36461610
Ga 196.66321723 1.53784707 10.14150133
Ga 196.66321722 1.53784707 15.91838690
Ga 196.66321722 1.53784707 21.69527248
Ga 196.66321722 1.53784707 27.47215770
Ga 192.85758424 0.00000004 28.91742279
Ga 192.85758404 0.00000001 0.03299518
Ga 192.85758409 0.00000000 5.80988078
Ga 192.85758394 36.90832974 11.58676635
Ga 192.85758408 36.90832977 17.36365147
Ga 192.85758437 0.00000007 23.14053711
Ga 201.81165140 1.53784707 31.72821799
Ga 201.81165140 1.53784707 2.84379083
Ga 201.81165140 1.53784707 8.62067605
Ga 201.81165140 1.53784707 14.39756163
Ga 201.81165140 1.53784707 20.17444720
Ga 201.81165140 1.53784707 25.95133243
Ga 199.63692589 0.00000000 33.33975456
Ga 199.63692589 36.90832980 4.45532738
Ga 199.63692589 0.00000000 10.23221261
Ga 199.63692589 0.00000000 16.00909819
Ga 199.63692589 0.00000000 21.78598376
Ga 199.63692589 0.00000000 27.56286899
Ga 202.62720541 0.00000000 0.03849431
Ga 202.62720541 0.00000000 5.81537989
Ga 202.62720541 0.00000000 11.59226546
Ga 202.62720541 0.00000000 17.36915069
Ga 202.62720541 0.00000000 23.14603626
Ga 202.62720541 0.00000000 28.92292184
Ga 198.82148851 1.53784707 30.36820143
Ga 198.82148851 1.53784707 1.48377426
Ga 198.82148851 1.53784707 7.26065983
Ga 198.82148851 1.53784707 13.03754506
Ga 198.82148851 1.53784707 18.81443063
Ga 198.82148851 1.53784707 24.59131621
Ga 183.91994407 0.00001330 27.37591990
Ga 183.91995450 0.00000209 33.15281197
Ga 183.91993308 0.00000459 4.26839058
Ga 183.91993337 36.90832744 10.04528037
Ga 183.91991176 36.90832797 15.82215115
Ga 183.91994093 0.00000415 21.59902124
Ga 181.73145255 1.51595814 29.05003945
Ga 181.68811923 1.55549129 0.12153489
Ga 181.70558968 1.59703090 5.85576802
Ga 181.65892421 1.48706801 11.64868284
Ga 181.72431232 1.57288990 17.40898354
Ga 181.80863622 1.51694678 23.26126805
Ga 184.73539402 1.53784850 30.34752779
Ga 184.73538559 1.53785198 1.46308518
Ga 184.73539686 1.53784619 7.23997328
Ga 184.73540091 1.53784396 13.01685944
Ga 184.73539715 1.53784793 18.79375407
Ga 184.73540641 1.53785319 24.57064975
Ga 180.93526021 0.01345087 26.01850938
Ga 180.87598354 36.85066335 31.88638058
Ga 180.84665114 0.09993516 3.04961987
Ga 180.79301501 36.89292404 8.70575476
Ga 180.70467688 36.88082857 14.45331619
Ga 180.81712909 36.84599799 20.21740993
Ga 189.88385583 1.53784737 28.82669469
Ga 189.88385505 1.53784709 34.60357971
Ga 189.88385529 1.53784689 5.71915255
Ga 189.88385483 1.53784671 11.49603825
Ga 189.88385511 1.53784686 17.27292303
Ga 189.88385606 1.53784768 23.04980863
Ga 187.70912309 0.00000060 30.43824780
Ga 187.70912162 0.00000103 1.55381877
Ga 187.70912242 0.00000036 7.33070471
Ga 187.70912253 0.00000007 13.10759060
Ga 187.70912431 36.90832975 18.88447540
Ga 187.70912558 0.00000036 24.66136180
Ga 190.69929913 0.00000012 31.79828173
Ga 190.69929913 0.00000002 2.91385431
Ga 190.69929908 36.90832967 8.69073992
Ga 190.69929873 36.90832963 14.46762498
Ga 190.69929927 0.00000004 20.24451060
Ga 190.69929939 0.00000005 26.02139674
Ga 186.89367735 1.53784895 27.46666122
Ga 186.89367470 1.53784767 33.24354652
Ga 186.89367543 1.53784848 4.35911775
Ga 186.89367695 1.53784692 10.13600443
Ga 186.89367996 1.53784564 15.91288828
Ga 186.89367974 1.53784917 21.68977367
Ga 171.74233800 0.05816323 24.51979107
Ga 171.68056106 0.02107799 30.23539624
Ga 171.72943949 0.00674328 1.48145014
Ga 171.79744093 0.00393800 7.23640143
Ga 171.81581753 0.00332107 12.95800187
Ga 171.90187719 0.03481621 18.83959702
Ga 169.68158887 1.58940533 26.19290485
Ga 169.50867495 1.53376579 31.90920418
Ga 169.58972576 1.65585192 3.03027219
Ga 169.52874326 1.48285717 8.83448422
Ga 169.58729448 1.55134046 14.59936015
Ga 169.64992528 1.62582438 20.35391800
Ga 172.65730535 1.67706591 27.51556980
Ga 172.62822768 1.50929764 33.24123988
Ga 172.49786457 1.50074180 4.42474463
Ga 172.79319663 1.49168713 10.18669081
Ga 172.57945525 1.52749343 15.89244155
Ga 172.62452792 1.50426171 21.78656295
Ga 168.77181897 36.85940276 23.21580182
Ga 168.63456959 36.89316255 28.82084990
Ga 168.79183666 36.89578719 0.12159555
Ga 168.75267841 36.89080686 5.86336096
Ga 168.73257358 36.89505104 11.61016101
Ga 168.91884701 36.89784151 17.41947221
Ga 177.90418523 1.56741441 25.95671158
Ga 177.83741206 1.63691843 31.61560926
Ga 177.83181153 1.53625989 2.94460013
Ga 177.74840175 1.59480799 8.59199247
Ga 177.83911117 1.57743301 14.34001336
Ga 177.87034524 1.59711194 20.11104944
Ga 175.59678459 0.05278008 27.47403274
Ga 175.65980475 36.86283868 33.37555552
Ga 175.55876075 36.89941099 4.51268357
Ga 175.60157943 36.87464259 10.26372493
Ga 175.63393654 36.81488278 16.06358967
Ga 175.70268868 36.85438579 21.84326729
Ga 178.72635069 0.01278477 28.93983911
Ga 178.71648597 0.02331039 0.09235927
Ga 178.75232184 0.03522083 5.88665582
Ga 178.51705499 0.00919097 11.62354975
Ga 178.70916546 36.80456775 17.34265328
Ga 178.80941821 0.02696382 23.20561795
Ga 174.82691046 1.49408745 24.59703359
Ga 174.69391297 1.51847978 30.40148518
Ga 174.75517492 1.46849405 1.48323414
Ga 174.84380266 1.57040853 7.38279661
Ga 174.63737621 1.62478382 13.20302872
Ga 174.78131166 1.65634144 18.90146051
Ga 159.70397666 0.09151585 21.62731084
Ga 159.80289191 0.02289584 27.44501965
Ga 159.81411730 0.04089906 33.18691187
Ga 159.78032007 0.06790452 4.27554127
Ga 159.71178782 36.85374958 10.05767571
Ga 159.81809085 0.09298440 15.80131873
Ga 157.57732262 1.56455752 23.29203904
Ga 157.44465224 1.60269264 28.98597983
Ga 157.57680961 1.54522212 0.07741254
Ga 157.52190984 1.60059994 5.98659096
Ga 157.50133579 1.62417344 11.80451790
Ga 157.71567418 1.61704470 17.42669065
Ga 160.66101644 1.68607494 24.59434365
Ga 160.62557791 1.59860967 30.36225522
Ga 160.57764702 1.57432575 1.46713675
Ga 160.55793964 1.49899473 7.31902845
Ga 160.71370533 1.43476719 12.94198515
Ga 160.44819734 1.61853950 18.77316963
Ga 156.82874388 0.05284568 20.25561952
Ga 156.64787781 0.03953812 26.09346340
Ga 156.67984848 0.00578560 31.83062921
Ga 156.70256460 36.84159939 2.89947025
Ga 156.72221277 36.88955726 8.73928153
Ga 156.71391749 0.03782915 14.52069791
Ga 165.79522939 1.57843501 22.94684522
Ga 165.70231276 1.62149540 28.89127976
Ga 165.75499552 1.53781490 34.65047011
Ga 165.76038889 1.51773879 5.72238733
Ga 165.75546115 1.60122078 11.49701015
Ga 165.78652607 1.51730370 17.26239289
Ga 163.54754289 0.10440711 24.65003974
Ga 163.60448326 0.05791235 30.52491016
Ga 163.63137104 0.02834041 1.56970481
Ga 163.63162952 0.01619868 7.40707200
Ga 163.54894812 0.00253357 13.11814365
Ga 163.62142997 0.01175047 18.91122121
Ga 166.50501833 0.07305950 26.11098648
Ga 166.49382663 0.00181877 31.84047340
Ga 166.49625618 0.09108292 2.92063153
Ga 166.61894357 0.04189192 8.72176411
Ga 166.51304871 0.06950721 14.53183682
Ga 166.73508151 0.02490975 20.29604210
Ga 162.78376557 1.56326506 21.66584400
Ga 162.68525997 1.56507457 27.47439631
Ga 162.70343114 1.48599920 33.33122137
Ga 162.82424823 1.55920033 4.34617990
Ga 162.75447388 1.51150622 10.20278037
Ga 162.66108350 1.50216561 15.94598395
Ga 147.78484752 0.14496329 18.70414057
Ga 147.63969341 0.01982631 24.45612724
Ga 147.56738123 0.16308392 30.33224284
Ga 147.71514748 0.01213011 1.32003433
Ga 147.67742900 0.02202516 7.17740131
Ga 147.70830948 0.01594861 13.00573120
Ga 145.53949860 1.66853531 20.32481599
Ga 145.52164507 1.64086204 26.30203666
Ga 145.50389919 1.66275719 32.00888207
Ga 145.50617310 1.63880540 3.09651388
Ga 145.40796357 1.60441395 8.82985627
Ga 145.53410548 1.64868416 14.60966339
Ga 148.62126492 1.56046789 21.84310228
Ga 148.55269485 1.62860907 27.50991115
Ga 148.44738340 1.62083161 33.27722229
Ga 148.53017897 1.55735283 4.34653528
Ga 148.47597202 1.60879008 10.15638906
Ga 148.59322022 1.68580887 15.90891778
Ga 144.64044465 0.11337705 17.37390667
Ga 144.75328707 0.13781835 23.13865822
Ga 144.58752101 0.07887199 28.98898639
Ga 144.54207776 0.05999437 0.10137344
Ga 144.71694475 36.88480288 5.87451525
Ga 144.57613860 0.06467636 11.69288667
Ga 153.77579240 1.63378884 20.17832136
Ga 153.77033338 1.55211725 25.81576184
Ga 153.63831030 1.63917718 31.75587965
Ga 153.69056969 1.62760977 2.80976749
Ga 153.73832863 1.55855211 8.59428793
Ga 153.66549858 1.58501796 14.37834950
Ga 151.55752924 0.04011565 21.69868487
Ga 151.47412649 36.87720644 27.56234079
Ga 151.49977319 0.06263833 33.34250208
Ga 151.44358842 0.05498923 4.45596242
Ga 151.42666268 0.09354138 10.24807578
Ga 151.51665413 0.08254919 15.87320279
Ga 154.58922972 0.04822415 23.04575928
Ga 154.49828750 0.08970868 28.92131125
Ga 154.49271974 0.03612590 0.05306473
Ga 154.67113987 36.84787056 5.88554949
Ga 154.48030185 0.14509860 11.59038352
Ga 154.65167138 0.09012006 17.35681682
Ga 150.75200664 1.63196708 18.73792218
Ga 150.63668831 1.58605530 24.55150387
Ga 150.72727124 1.60153138 30.38329439
Ga 150.67546779 1.62476992 1.46809040
Ga 150.50533883 1.56587907 7.30551467
Ga 150.63779095 1.70020103 13.00829368
Ga 135.53323424 0.09465381 15.85791332
Ga 135.63216607 0.22507229 21.71471284
Ga 135.69121455 0.11574421 27.48570891
Ga 135.55893528 0.09276219 33.26718683
Ga 135.52209525 0.14990052 4.39850602
Ga 135.71868781 0.18897194 10.29039034
Ga 133.47846068 1.62748386 17.65282283
Ga 133.44074693 1.57035836 23.27937238
Ga 133.40701518 1.57765252 28.99757709
Ga 133.40120391 1.64893174 0.23918859
Ga 133.40619951 1.64048002 6.01214454
Ga 133.39837613 1.65058247 11.76855508
Ga 136.43394969 1.63161349 18.86264240
Ga 136.51798931 1.62555615 24.69428475
Ga 136.43104159 1.71880280 30.42335229
Ga 136.49830565 1.67760783 1.58417531
Ga 136.38359303 1.59349943 7.29847227
Ga 136.47846217 1.76644201 13.09730047
Ga 132.53004345 0.10974354 14.57032028
Ga 132.62339009 0.10256712 20.40551843
Ga 132.57933693 0.05422086 26.09866971
Ga 132.50247619 0.08371156 31.78737193
Ga 132.60558910 0.10662229 2.96055116
Ga 132.66511741 0.23423386 8.84211658
Ga 141.64341491 1.58846977 17.28988736
Ga 141.77246506 1.63023774 23.08669039
Ga 141.72687650 1.55144649 28.80848581
Ga 141.57872746 1.56797789 34.64860054
Ga 141.56348636 1.55504105 5.75279139
Ga 141.75386975 1.63647429 11.54706657
Ga 139.49209276 0.15097449 19.03044677
Ga 139.44390761 0.10012011 24.85274710
Ga 139.35810902 0.06064617 30.42893909
Ga 139.39120531 0.15326036 1.65680331
Ga 139.37819997 0.00614700 7.33970851
Ga 139.49105150 0.25512020 13.17459218
Ga 142.52228520 0.01575198 20.33196857
Ga 142.51455871 0.18145241 26.05473318
Ga 142.49073630 0.02084975 31.88035011
Ga 142.41292585 0.14196081 3.02044230
Ga 142.39500569 0.11748842 8.76521029
Ga 142.42695607 36.86991476 14.48773872
Ga 138.58812690 1.64837151 16.03204630
Ga 138.67103682 1.68950893 21.80341225
Ga 138.70414495 1.63441635 27.58886434
Ga 138.58057865 1.62685237 33.29949282
Ga 138.49169517 1.64834012 4.50677504
Ga 138.77018398 1.67232988 10.18677825
Ga 123.58948953 0.07046515 13.18059956
Ga 123.53844259 0.10719741 18.96407657
Ga 123.68857871 0.15204367 24.73966392
Ga 123.61835876 0.11715775 30.55683836
Ga 123.58684344 0.06992974 1.49881584
Ga 123.66554895 0.20775701 7.32741764
Ga 121.44715539 1.62425389 14.78977118
Ga 121.41966200 1.57043222 20.59627105
Ga 121.40230730 1.62196367 26.30445143
Ga 121.38358707 1.75773002 32.05786671
Ga 121.44301082 1.60146992 3.18977096
Ga 121.40433289 1.63598450 9.01716099
Ga 124.52356911 1.70123470 16.10452111
Ga 124.48026467 1.60955754 21.90015212
Ga 124.32343522 1.55418083 27.67999774
Ga 124.52618556 1.66014521 33.38881506
Ga 124.40501123 1.61565419 4.47124891
Ga 124.38020822 1.58710895 10.38969287
Ga 120.39062710 0.08761318 11.83512990
Ga 120.45280278 0.12964933 17.63321691
Ga 120.65312608 0.13765450 23.34483175
Ga 120.71071034 0.11014480 29.19652107
Ga 120.65748566 0.14915493 0.24235452
Ga 120.66074315 0.06744150 6.02094201
Ga 129.62115657 1.77713298 14.50393415
Ga 129.50073000 1.66644040 20.18660652
Ga 129.52444520 1.65016153 25.95055726
Ga 129.66196857 1.61775902 31.77430864
Ga 129.66127831 1.61238804 2.90533802
Ga 129.54716995 1.62385517 8.76045950
Ga 127.45435239 0.13580733 16.06087490
Ga 127.40789238 0.08195722 21.93772165
Ga 127.49403801 0.10283350 27.68788835
Ga 127.42001674 0.12878483 33.50795064
Ga 127.38095379 0.12129804 4.67310408
Ga 127.48359127 0.00268198 10.40914673
Ga 130.48930596 0.06024432 17.45217627
Ga 130.58288495 0.05622109 23.14693075
Ga 130.45366892 0.15646791 28.88298342
Ga 130.43515349 0.10254078 0.05201012
Ga 130.47647424 0.09068679 5.96213308
Ga 130.45201615 0.11538419 11.77144549
Ga 126.54916593 1.58957732 13.16874470
Ga 126.56786896 1.67087167 18.90186726
Ga 126.61956239 1.64170530 24.73112515
Ga 126.60909988 1.58768262 30.45366454
Ga 126.64162001 1.64188539 1.54644546
Ga 126.65926291 1.64571402 7.38028989
Ga 111.54602459 0.15574583 10.31510183
Ga 111.55720325 0.14716454 16.07145574
Ga 111.59439269 0.15144513 21.78173121
Ga 111.59939540 0.07778379 27.44890351
Ga 111.76167711 0.21197719 33.33695052
Ga 111.64166614 0.12932209 4.55553202
Ga 109.38031288 1.58755403 11.95734483
Ga 109.21793761 1.64549404 17.65975171
Ga 109.33724962 1.80882070 23.40437889
Ga 109.63267080 1.65953358 29.22231552
Ga 109.59168906 1.57707772 0.39848975
Ga 109.33009555 1.60217088 6.14137719
Ga 112.39220786 1.61325877 13.34625698
Ga 112.38405296 1.65917494 19.03688815
Ga 112.34028170 1.62379195 24.75759302
Ga 112.56601830 1.52444884 30.51261882
Ga 112.44561669 1.62978799 1.68422989
Ga 112.39997614 1.73534898 7.59428577
Ga 108.54971053 0.07623334 8.86597734
Ga 108.46090868 0.02836099 14.75631159
Ga 108.57738921 0.20634898 20.42113816
Ga 108.62317494 0.18960556 26.19679622
Ga 108.88987106 0.21253724 32.07115750
Ga 108.64330581 36.85337178 3.25202569
Ga 117.60845309 1.69292306 11.68424871
Ga 117.54638139 1.69395580 17.40603738
Ga 117.57997093 1.58880585 23.14381541
Ga 117.59832797 1.63425507 29.04092231
Ga 117.68278762 1.75245292 0.23626964
Ga 117.59139848 1.64981671 5.92236622
Ga 115.46642507 0.21514043 13.35624131
Ga 115.41250315 0.12838195 19.10827694
Ga 115.39608092 0.05689095 24.83609015
Ga 115.52432609 0.21455817 30.69171245
Ga 115.39078048 0.15249793 1.71721534
Ga 115.38744243 0.10821596 7.62352914
Ga 118.36447429 0.16542968 14.66813619
Ga 118.55345422 0.07218592 20.31991160
Ga 118.47232104 0.10434479 26.19574880
Ga 118.42276721 0.21059708 32.02064092
Ga 118.57537265 0.27683072 3.16130323
Ga 118.35060970 0.18643469 8.89517649
Ga 114.54292622 1.72073464 10.33653079
Ga 114.43846091 1.66246945 16.04572133
Ga 114.57926963 1.73220652 21.90939652
Ga 114.57711516 1.71061531 27.61633574
Ga 114.64094764 1.81449716 33.49662599
Ga 114.57257081 1.63641192 4.63540366
Ga 99.92028889 36.84028569 7.34407024
Ga 99.47777289 36.88451067 13.19381733
Ga 99.49599140 0.27372672 19.43229588
Ga 99.90104751 0.28065729 25.14627220
Ga 99.84430981 0.22671617 30.81242968
Ga 99.78913905 0.01246687 1.62405323
Ga 96.83285049 2.69601125 8.95760957
Ga 96.68973326 0.69673833 14.61364332
Ga 96.81902241 0.51157632 21.51375555
Ga 97.07175850 0.22158391 27.12200507
Ga 97.01022837 36.76385159 32.61490845
Ga 97.03313410 2.96747130 3.44392615
Ga 100.33564008 1.45934846 10.29976959
Ga 99.72164902 1.53977685 16.18781326
Ga 100.44063422 1.71318108 22.19518804
Ga 100.77536984 1.68521223 27.99042343
Ga 100.84955639 1.60794438 33.58230916
Ga 100.68742057 1.54318330 4.48839087
Ga 97.04579558 1.42352561 6.12780771
Ga 96.79249786 1.41776177 11.55906390
Ga 96.96939016 35.65539690 18.64191998
Ga 97.21029712 35.60454852 24.23512109
Ga 96.92097816 35.50322576 29.94848781
Ga 96.91353484 35.27835934 0.69975208
Ga 105.52721182 1.62815596 9.07474657
Ga 105.42256670 1.61474519 14.66932684
Ga 105.48770052 1.59467269 20.40367838
Ga 105.70083869 1.68358327 26.22879778
Ga 105.86137654 1.61858665 31.97535808
Ga 105.74970342 1.67311400 3.04910769
Ga 103.29949821 0.03214412 10.60477491
Ga 103.09583845 0.10449767 16.22455886
Ga 103.47203501 0.21608938 22.15416029
Ga 103.55293892 0.13250016 27.97904676
Ga 103.79565347 36.90086609 33.65018009
Ga 103.63161097 0.00952609 4.84599774
Ga 106.26380708 36.87486745 11.99465994
Ga 106.34817589 0.12170841 17.56686108
Ga 106.42119339 0.22436906 23.43802795
Ga 106.52940646 0.20606158 29.19390307
Ga 106.68728226 0.06416250 0.34085212
Ga 106.39349069 0.08579958 6.12887302
Ga 102.87994905 1.58924127 7.53000043
Ga 102.25176918 1.66951915 13.37694040
Ga 102.43761897 1.78914466 19.13195524
Ga 102.78896834 1.81807820 25.02593244
Ga 102.91294609 1.67870803 30.73064680
Ga 102.82146956 1.59988851 1.74739258
Si 11.53154787 0.15766454 31.10629592
Si 11.53154791 1.81380757 28.44004096
Si 11.53154794 0.39425644 25.77378603
Si 11.53154801 2.05039944 23.10753143
Si 11.53154797 0.63084830 20.44127654
Si 11.53154794 2.28699124 17.77502163
Si 11.53154790 0.86744009 15.10876703
Si 11.53154785 2.52358310 12.44251209
Si 11.53154784 1.10403199 9.77625717
Si 11.53154782 2.76017501 7.11000252
Si 11.53154785 1.34062383 4.44374762
Si 11.53154787 2.99676683 1.77749266
Si 11.53154786 1.57721570 33.77255049
Si 6.49585833 1.73507640 30.21756395
Si 6.49585833 0.31552526 27.55130903
Si 6.49585833 1.97166827 24.88505443
Si 6.49585833 0.55211713 22.21879951
Si 6.49585833 2.20826014 19.55254458
Si 6.49585833 0.78870900 16.88628998
Si 6.49585833 2.44485197 14.22003504
Si 6.49585833 1.02530083 11.55378012
Si 6.49585833 2.68144384 8.88752552
Si 6.49585833 1.26189270 6.22127059
Si 6.49585833 2.91803571 3.55501567
Si 6.49585833 1.49848457 0.88876107
Si 6.49585833 0.07893343 32.88381889
Si 14.04867875 1.65620776 31.99506726
Si 14.04867902 0.23665665 29.32881270
Si 14.04867933 1.89279977 26.66255773
Si 14.04867941 0.47324861 23.99630281
Si 14.04867955 2.12939167 21.33004848
Si 14.04867973 0.70984034 18.66379357
Si 14.04867885 2.36598334 15.99753873
Si 14.04867905 0.94643203 13.33128371
Si 14.04867821 2.60257505 10.66502898
Si 14.04867856 1.18302394 7.99877397
Si 14.04867836 2.83916692 5.33251906
Si 14.04867836 1.41961575 2.66626452
Si 14.04867885 0.00006463 0.00000958
Si 9.01333817 1.65607304 31.99504771
Si 9.01333816 0.23652190 29.32879313
Si 9.01333816 1.89266491 26.66253820
Si 9.01333815 0.47311373 23.99628326
Si 9.01333815 2.12925674 21.33002868
Si 9.01333815 0.70970560 18.66377374
Si 9.01333816 2.36584861 15.99751880
Si 9.01333817 0.94629747 13.33126387
Si 9.01333818 2.60244048 10.66500928
Si 9.01333817 1.18288930 7.99875435
Si 9.01333818 2.83903231 5.33249942
Si 9.01333817 1.41948117 2.66624483
Si 9.01333817 36.90825983 34.66130265
Si 21.60218041 0.15769600 31.10627511
Si 21.60215778 1.81379934 28.44001834
Si 21.60212684 0.39424602 25.77376828
Si 21.60189238 2.05040506 23.10755518
Si 21.60213026 0.63082426 20.44126963
Si 21.60207401 2.28696295 17.77506290
Si 21.60205636 0.86740580 15.10875527
Si 21.60225445 2.52357801 12.44253636
Si 21.60222380 1.10402831 9.77623193
Si 21.60211722 2.76016450 7.11000786
Si 21.60225129 1.34060210 4.44370247
Si 21.60227682 2.99676460 1.77748333
Si 21.60222060 1.57713645 33.77254288
Si 16.56687144 1.73507062 30.21756479
Si 16.56687077 0.31551951 27.55130963
Si 16.56687443 1.97166219 24.88505438
Si 16.56687276 0.55211149 22.21880115
Si 16.56687332 2.20825345 19.55254677
Si 16.56687089 0.78870210 16.88629224
Si 16.56686952 2.44484498 14.22003741
Si 16.56686793 1.02529391 11.55378267
Si 16.56686692 2.68143663 8.88752649
Si 16.56686738 1.26188572 6.22127035
Si 16.56686869 2.91802775 3.55501681
Si 16.56687059 1.49847665 0.88876223
Si 16.56687124 0.07892723 32.88382098
Si 24.06742725 1.67071752 31.93376176
Si 24.09677070 0.25183225 29.27334993
Si 24.08369085 1.87627379 26.63510567
Si 24.09241831 0.50148076 23.96483768
Si 23.99352847 2.13879494 21.32359407
Si 24.08078194 0.65489458 18.66337711
Si 24.02948100 2.34934794 16.01922464
Si 24.10064736 0.91814978 13.43622440
Si 24.08338064 2.63869758 10.71469792
Si 24.15349935 1.17567807 7.95695564
Si 24.06885742 2.90725996 5.32305798
Si 24.14066188 1.43945108 2.62395862
Si 24.15683443 0.02734459 34.62428386
Si 19.08401164 1.65607956 31.99504796
Si 19.08400809 0.23653069 29.32879200
Si 19.08401287 1.89267136 26.66253521
Si 19.08401659 0.47312145 23.99628216
Si 19.08400992 2.12926261 21.33002929
Si 19.08401342 0.70970608 18.66377672
Si 19.08400292 2.36585107 15.99752277
Si 19.08400574 0.94630024 13.33126761
Si 19.08399717 2.60244857 10.66501133
Si 19.08400809 1.18289297 7.99875167
Si 19.08400010 2.83903627 5.33249426
Si 19.08401220 1.41948509 2.66624130
Si 19.08402357 36.90826243 34.66130138
Si 31.63562546 0.11972339 31.11564564
Si 31.64220912 1.92700935 28.43189876
Si 31.59181095 0.41704735 25.75386795
Si 31.54611376 2.15887769 23.12341100
Si 31.52976376 0.65338291 20.44188842
Si 31.61171404 2.28958255 17.80317137
Si 31.63883328 0.85958656 15.13487508
Si 31.55527645 2.57170706 12.45130406
Si 31.53187160 1.05576144 9.75920785
Si 31.56790149 2.85578913 7.05487573
Si 31.58903432 1.27439156 4.46171104
Si 31.61895374 2.98011883 1.76920122
Si 31.60310254 1.64095529 33.78036404
Si 26.62585062 1.75015037 30.20036741
Si 26.57929818 0.31786952 27.53058735
Si 26.58103527 2.08210360 24.88655046
Si 26.59454118 0.64346841 22.24797002
Si 26.53675377 2.29551464 19.57348149
Si 26.66548304 0.83263375 16.90572897
Si 26.58251752 2.55111716 14.26669608
Si 26.57540577 1.06747208 11.55422839
Si 26.56689295 2.71294746 8.79675738
Si 26.66189868 1.27729735 6.08609227
Si 26.67201918 2.93878661 3.54153194
Si 26.57094212 1.54559472 0.81440473
Si 26.57964682 0.11933103 32.87516917
Si 34.04728426 1.69948332 32.01550941
Si 34.11003785 0.32959322 29.31029669
Si 34.06733738 1.93838392 26.54457656
Si 34.08127338 0.48497360 23.94160861
Si 34.08466392 2.08175467 21.23345585
Si 34.13086956 0.75697232 18.68039033
Si 34.14413919 2.31380460 16.01768143
Si 34.00752658 0.92043080 13.25339890
Si 34.08532010 2.71853695 10.69411543
Si 34.01361743 1.16418808 8.06160272
Si 34.05913728 2.91669827 5.34975778
Si 34.09202281 1.42745139 2.67328025
Si 34.13477782 0.03846144 0.03547058
Si 29.10650339 1.67608031 31.95689395
Si 29.17109079 0.28774848 29.31834737
Si 29.13203356 1.88047627 26.65782919
Si 29.12212027 0.52110855 23.95390744
Si 29.02147684 2.09220129 21.34215871
Si 29.08707457 0.71737192 18.61681086
Si 29.17711534 2.38445822 15.93798474
Si 29.07821819 0.91637780 13.30975904
Si 29.08240995 2.62988852 10.64391638
Si 29.04033259 1.27513633 8.04035770
Si 29.11969447 2.80506162 5.24232787
Si 29.05913725 1.40470107 2.59027809
Si 29.06286434 36.87649737 34.62123414
Si 41.60802834 0.21486488 31.05844061
Si 41.61462844 1.80739059 28.37615966
Si 41.62778670 0.41690693 25.72220234
Si 41.59221972 2.04916826 22.99227012
Si 41.58592342 0.59392117 20.34356997
Si 41.53342794 2.29909609 17.71250422
Si 41.56664957 0.89881126 15.08455037
Si 41.57084380 2.54215214 12.38773056
Si 41.57858276 1.08621028 9.68505635
Si 41.66230897 2.76577515 7.05644330
Si 41.54183998 1.29911631 4.43135182
Si 41.51982346 2.99354622 1.79355207
Si 41.59459055 1.52262796 33.75032812
Si 36.66874355 1.70562851 30.29887920
Si 36.61024443 0.34543305 27.56854456
Si 36.62778667 1.93590769 24.82052055
Si 36.60917928 0.58525793 22.17164426
Si 36.49665405 2.27798749 19.47614295
Si 36.61791941 0.81321182 16.79688024
Si 36.57454449 2.39599270 14.11250644
Si 36.57641101 1.05882540 11.48515880
Si 36.61732999 2.68799637 8.87461094
Si 36.60184445 1.38560995 6.23567290
Si 36.60628324 2.97603215 3.55397586
Si 36.62542549 1.54626030 0.96754469
Si 36.58294535 0.15638293 32.87723680
Si 44.15288051 1.66744054 31.97233993
Si 44.10087826 0.27388773 29.27037022
Si 44.04647440 1.82780335 26.66723037
Si 44.14106014 0.44234796 23.90538724
Si 44.10581202 2.21553144 21.29147124
Si 44.12035513 0.72290404 18.65238381
Si 44.07520703 2.38594275 16.01631413
Si 44.11108790 0.89927743 13.26521852
Si 44.06481501 2.51641113 10.63624251
Si 44.05457785 1.16987867 7.94234138
Si 44.05190231 2.88463128 5.25295963
Si 44.08841119 1.46511785 2.56694179
Si 44.03816599 36.89443499 34.63578629
Si 39.09452351 1.69617212 31.98134959
Si 39.04658048 0.23114614 29.29726378
Si 39.06802945 1.98769795 26.56075405
Si 39.13442282 0.47157846 23.90530891
Si 39.07092453 2.14755392 21.19401738
Si 39.05838015 0.77802796 18.51810662
Si 39.08896620 2.45065170 15.93783243
Si 39.05668370 0.93805436 13.30581896
Si 39.14226411 2.63965555 10.65970580
Si 39.04284607 1.21974932 7.95875775
Si 39.08067007 2.93388758 5.37060130
Si 39.10847674 1.52363311 2.65861864
Si 39.07084208 0.00301536 34.61412300
Si 51.64653862 0.12202293 30.96282369
Si 51.60817137 1.91177021 28.33569882
Si 51.66866510 0.45799236 25.67789658
Si 51.61373206 2.12871227 23.02441747
Si 51.65595659 0.63700272 20.40834662
Si 51.66962711 2.31025469 17.71747109
Si 51.67785839 0.80070848 15.05848664
Si 51.62916460 2.49699616 12.41902186
Si 51.58546691 1.08031508 9.73440574
Si 51.57299463 2.79278539 7.05316616
Si 51.60648697 1.34336976 4.28489755
Si 51.63359504 3.08120742 1.65058248
Si 51.71043944 1.56505498 33.68927151
Si 46.56394848 1.76321512 30.17554596
Si 46.62411966 0.33507888 27.45940586
Si 46.53701411 2.05824396 24.91480122
Si 46.62678970 0.56083347 22.13889320
Si 46.63734773 2.35073214 19.46143478
Si 46.63501794 0.82933678 16.79162615
Si 46.61187006 2.48806037 14.15483009
Si 46.68059220 1.01736375 11.52719652
Si 46.54861820 2.70414224 8.89305683
Si 46.53789962 1.31271758 6.19216128
Si 46.58511598 2.93162998 3.53403686
Si 46.58040987 1.56425636 0.91400093
Si 46.56315586 0.14852703 32.85849992
Si 54.15062550 1.72216855 31.94004934
Si 54.09455339 0.24405403 29.24240770
Si 54.12423641 1.92168966 26.52145244
Si 54.12615650 0.56661720 23.86222294
Si 54.16783271 2.15901188 21.20985071
Si 54.14339888 0.77983196 18.57174916
Si 54.12983172 2.25751766 15.93134257
Si 54.15539991 0.97094541 13.21460461
Si 54.15462622 2.56794501 10.59170158
Si 54.16032878 1.25484636 7.92938442
Si 54.09537933 2.94579269 5.26885070
Si 54.07603591 1.50090381 2.61576168
Si 54.20112437 0.03415591 0.00440265
Si 49.10115364 1.64454321 31.96894914
Si 49.06781473 0.23719752 29.29748049
Si 49.12756527 1.85785138 26.67836133
Si 48.99278340 0.54363222 23.96235019
Si 49.10271446 2.20274757 21.24446428
Si 49.21649759 0.79029413 18.62693579
Si 49.09004716 2.38641761 15.96620034
Si 49.14570415 0.99698398 13.27583394
Si 49.19216247 2.61506546 10.56299294
Si 49.12567811 1.20228874 7.96363718
Si 49.11401801 2.84809153 5.25562283
Si 49.06671465 1.42427901 2.62692494
Si 49.12159115 0.04645089 0.00755711
Si 61.63627261 0.16702897 30.98430883
Si 61.63420718 1.81143900 28.33810604
Si 61.50016767 0.33276210 25.64848812
Si 61.67328324 2.06320565 23.04656902
Si 61.51734121 0.68642496 20.38160630
Si 61.71254645 2.28437798 17.71620091
Si 61.63039242 0.86764471 15.02036787
Si 61.58359090 2.50688435 12.31265561
Si 61.67691300 1.16686987 9.66547583
Si 61.71349816 2.70148517 7.09973942
Si 61.61975255 1.36492460 4.36156190
Si 61.59202519 3.00287611 1.71340369
Si 61.58265624 1.59120119 33.68727523
Si 56.62403009 1.74507937 30.11841947
Si 56.55065597 0.37605656 27.58211760
Si 56.64850264 2.09491604 24.80865682
Si 56.60315761 0.56793603 22.12018728
Si 56.63331847 2.28218958 19.47872810
Si 56.61077336 0.78094110 16.83977301
Si 56.62064348 2.39185906 14.17100113
Si 56.59527567 1.08150905 11.45596197
Si 56.65898373 2.66241614 8.78863241
Si 56.56978152 1.30896691 6.04427504
Si 56.57632739 2.94901477 3.46295876
Si 56.65011660 1.55118783 0.85100848
Si 56.65294917 0.14608580 32.83157442
Si 64.16153596 1.65318186 31.90982143
Si 64.10946905 0.15999097 29.26671914
Si 64.13101571 1.89014478 26.56129483
Si 64.15318190 0.49037349 23.85962816
Si 64.16573263 2.19045710 21.25715669
Si 64.18262154 0.75567022 18.64553178
Si 64.18341884 2.41734548 15.85040299
Si 64.10132492 1.00993286 13.29428446
Si 64.12558634 2.56077536 10.53397819
Si 64.13067757 1.18312397 7.99712498
Si 64.16386967 2.89997844 5.21161409
Si 64.08591900 1.46599126 2.62882593
Si 64.10798157 0.04669524 34.63034395
Si 59.14019260 1.71193913 31.91235597
Si 59.06805893 0.30506641 29.22397863
Si 59.14649795 1.89069959 26.62996919
Si 59.11943230 0.53801363 23.92601042
Si 59.10269439 2.16904069 21.31519938
Si 59.17228563 0.74961165 18.56979915
Si 59.17571909 2.31072775 15.91105411
Si 59.12405457 0.92755527 13.16282389
Si 59.05741603 2.57796187 10.58480691
Si 59.18595969 1.25964038 7.90339243
Si 59.11681606 2.86680116 5.31330080
Si 59.07592649 1.46059721 2.59724956
Si 59.16477688 36.87679797 34.65665034
Si 71.68099781 0.09964823 30.97736274
Si 71.61875947 1.90392158 28.32886069
Si 71.72809032 0.38360458 25.65180773
Si 71.66862844 1.97607562 23.02843198
Si 71.70525035 0.62977099 20.30952181
Si 71.65329042 2.26615316 17.67677551
Si 71.70174645 0.88866059 15.03586503
Si 71.64871294 2.47308387 12.28710551
Si 71.67047182 1.00649389 9.65825301
Si 71.65606459 2.70986119 6.99227916
Si 71.65551464 1.35095981 4.26937359
Si 71.70378326 2.94823361 1.69262198
Si 71.66270978 1.50949737 33.69795415
Si 66.69680136 1.82697808 30.01366107
Si 66.62017895 0.40071743 27.44873797
Si 66.60629042 2.02104794 24.78540358
Si 66.65936487 0.59695295 22.08167527
Si 66.68223531 2.18763560 19.48637535
Si 66.61220814 0.75271443 16.80542656
Si 66.63020895 2.47335862 14.15666807
Si 66.63831042 1.05950091 11.43157946
Si 66.69233109 2.78980038 8.77039528
Si 66.60581453 1.34866195 6.17475087
Si 66.61660612 2.97607637 3.43759732
Si 66.54072058 1.59868528 0.77151318
Si 66.64319387 0.16760500 32.85059702
Si 74.12809323 1.67380641 31.79722883
Si 74.18175987 0.27188523 29.11511283