   44   44    1    1
  0.3110443E+02  0.3090000E-09  0.1127000E-08  0.3930000E-08  0.5000000E-15
   1.0000000000000000E-004
  CAR 
 unknown system                          
    164     17    106
 
  0.1262379E-14  0.1262379E-14  0.1262379E-14  0.3030303E-01
      1        -13.360886   1.000000
      2        -13.038061   1.000000
      3        -12.530688   1.000000
      4        -12.347858   1.000000
      5        -12.297268   1.000000
      6        -12.134705   1.000000
      7        -12.035153   1.000000
      8        -11.496382   1.000000
      9        -11.348884   1.000000
     10        -11.335490   1.000000
     11        -10.652601   1.000000
     12        -10.625722   1.000000
     13        -10.503440   1.000000
     14        -10.351579   1.000000
     15        -10.208286   1.000000
     16         -9.931940   1.000000
     17         -9.495458   1.000000
     18         -9.424582   1.000000
     19         -9.343294   1.000000
     20         -8.820183   1.000000
     21         -7.102772   1.000000
     22         -6.349068   1.000000
     23         -6.308043   1.000000
     24         -5.893124   1.000000
     25         -5.716228   1.000000
     26         -5.706402   1.000000
     27         -5.488537   1.000000
     28         -5.409048   1.000000
     29         -5.255720   1.000000
     30         -5.098782   1.000000
     31         -5.064386   1.000000
     32         -4.162803   1.000000
     33         -4.092063   1.000000
     34         -3.635065   1.000000
     35         -3.443611   1.000000
     36         -3.412220   1.000000
     37         -3.301528   1.000000
     38         -2.912472   1.000000
     39         -2.830216   1.000000
     40         -2.797988   1.000000
     41         -2.628693   1.000000
     42         -2.568750   1.000000
     43         -2.195393   1.000000
     44         -1.941317   1.000000
     45         -1.895723   1.000000
     46         -1.725093   1.000000
     47         -1.563846   1.000000
     48         -1.405277   1.000000
     49         -1.301448   1.000000
     50         -0.873751   1.000000
     51         -0.803597   1.000000
     52         -0.689045   1.000000
     53         -0.490974   1.000000
     54         -0.445555   1.000000
     55         -0.407186   1.000000
     56         -0.301074   1.000000
     57         -0.268194   1.000000
     58         -0.222149   1.000000
     59         -0.145300   1.000000
     60         -0.119910   1.000000
     61          0.025094   1.000000
     62          0.196358   1.000000
     63          0.234517   1.000000
     64          0.275703   1.000000
     65          0.391441   1.000000
     66          0.462728   1.000000
     67          0.476853   1.000000
     68          0.501841   1.000000
     69          0.658380   1.000000
     70          0.683613   1.000000
     71          0.739240   1.000000
     72          0.814941   1.000000
     73          0.882526   1.000000
     74          0.910402   1.000000
     75          0.937537   1.000000
     76          1.022132   1.000000
     77          1.063049   1.000000
     78          1.226717   1.000000
     79          1.253977   1.000000
     80          1.298460   0.999991
     81          1.395808   0.938725
     82          1.482034   0.185476
     83          1.503674   0.065936
     84          1.508584   0.049919
     85          1.563283   0.000705
     86          1.598885   0.000013
     87          1.615741   0.000001
     88          1.709240   0.000000
     89          1.757593   0.000000
     90          1.890756   0.000000
     91          1.926048   0.000000
     92          2.105896   0.000000
     93          2.215538   0.000000
     94          2.287614   0.000000
     95          2.664661   0.000000
     96          2.796973   0.000000
     97          3.271985   0.000000
     98          3.302339   0.000000
     99          3.635973   0.000000
    100          3.798117   0.000000
    101          3.842344   0.000000
    102          4.061692   0.000000
    103          4.280882   0.000000
    104          4.382686   0.000000
    105          4.436188   0.000000
    106          4.543098   0.000000
 
  0.9090909E-01  0.1262379E-14  0.1262379E-14  0.6060606E-01
      1        -13.256428   1.000000
      2        -12.937867   1.000000
      3        -12.430264   1.000000
      4        -12.249158   1.000000
      5        -12.201948   1.000000
      6        -12.036741   1.000000
      7        -11.937966   1.000000
      8        -11.406361   1.000000
      9        -11.252913   1.000000
     10        -11.241353   1.000000
     11        -10.567913   1.000000
     12        -10.539531   1.000000
     13        -10.415287   1.000000
     14        -10.274070   1.000000
     15        -10.116092   1.000000
     16         -9.850283   1.000000
     17         -9.413901   1.000000
     18         -9.349069   1.000000
     19         -9.272950   1.000000
     20         -8.770857   1.000000
     21         -7.009275   1.000000
     22         -6.262611   1.000000
     23         -6.217370   1.000000
     24         -5.815655   1.000000
     25         -5.646470   1.000000
     26         -5.638605   1.000000
     27         -5.424075   1.000000
     28         -5.340848   1.000000
     29         -5.190239   1.000000
     30         -5.056202   1.000000
     31         -5.024105   1.000000
     32         -4.162393   1.000000
     33         -4.094225   1.000000
     34         -3.600394   1.000000
     35         -3.411274   1.000000
     36         -3.376296   1.000000
     37         -3.275842   1.000000
     38         -2.906055   1.000000
     39         -2.808445   1.000000
     40         -2.776546   1.000000
     41         -2.626309   1.000000
     42         -2.555119   1.000000
     43         -2.215006   1.000000
     44         -1.994278   1.000000
     45         -1.939114   1.000000
     46         -1.853580   1.000000
     47         -1.806624   1.000000
     48         -1.715828   1.000000
     49         -1.459525   1.000000
     50         -1.362882   1.000000
     51         -1.271810   1.000000
     52         -1.057088   1.000000
     53         -0.963979   1.000000
     54         -0.796655   1.000000
     55         -0.596046   1.000000
     56         -0.505363   1.000000
     57         -0.442501   1.000000
     58         -0.402027   1.000000
     59         -0.365302   1.000000
     60         -0.326946   1.000000
     61         -0.281872   1.000000
     62         -0.068078   1.000000
     63         -0.016101   1.000000
     64          0.063139   1.000000
     65          0.134061   1.000000
     66          0.152660   1.000000
     67          0.215713   1.000000
     68          0.270578   1.000000
     69          0.341990   1.000000
     70          0.398379   1.000000
     71          0.475948   1.000000
     72          0.606123   1.000000
     73          0.650393   1.000000
     74          0.747033   1.000000
     75          0.843026   1.000000
     76          0.878698   1.000000
     77          0.959256   1.000000
     78          1.022675   1.000000
     79          1.031974   1.000000
     80          1.125016   1.000000
     81          1.248932   1.000000
     82          1.339544   0.999142
     83          1.358051   0.995500
     84          1.448661   0.519630
     85          1.485458   0.160708
     86          1.555015   0.001544
     87          1.689319   0.000000
     88          1.735001   0.000000
     89          1.804379   0.000000
     90          1.835175   0.000000
     91          2.000783   0.000000
     92          2.221490   0.000000
     93          2.339664   0.000000
     94          2.415586   0.000000
     95          2.780652   0.000000
     96          2.925809   0.000000
     97          3.398685   0.000000
     98          3.430016   0.000000
     99          3.762603   0.000000
    100          3.920998   0.000000
    101          3.965672   0.000000
    102          4.391939   0.000000
    103          4.526014   0.000000
    104          4.591334   0.000000
    105          4.671363   0.000000
    106          4.928544   0.000000
 
  0.1818182E+00  0.1262379E-14  0.1262379E-14  0.6060606E-01
      1        -12.946181   1.000000
      2        -12.642573   1.000000
      3        -12.133902   1.000000
      4        -11.959918   1.000000
      5        -11.922273   1.000000
      6        -11.747849   1.000000
      7        -11.651290   1.000000
      8        -11.142492   1.000000
      9        -10.971765   1.000000
     10        -10.964307   1.000000
     11        -10.328111   1.000000
     12        -10.290492   1.000000
     13        -10.160426   1.000000
     14        -10.054683   1.000000
     15         -9.846322   1.000000
     16         -9.614063   1.000000
     17         -9.184550   1.000000
     18         -9.149747   1.000000
     19         -9.068485   1.000000
     20         -8.656011   1.000000
     21         -6.744052   1.000000
     22         -6.018061   1.000000
     23         -5.962877   1.000000
     24         -5.609855   1.000000
     25         -5.486066   1.000000
     26         -5.457874   1.000000
     27         -5.271606   1.000000
     28         -5.190976   1.000000
     29         -5.068804   1.000000
     30         -4.960478   1.000000
     31         -4.914417   1.000000
     32         -4.302139   1.000000
     33         -4.220857   1.000000
     34         -3.615436   1.000000
     35         -3.457746   1.000000
     36         -3.403427   1.000000
     37         -3.333798   1.000000
     38         -3.252615   1.000000
     39         -3.006834   1.000000
     40         -2.902776   1.000000
     41         -2.848041   1.000000
     42         -2.755700   1.000000
     43         -2.663569   1.000000
     44         -2.447923   1.000000
     45         -2.328355   1.000000
     46         -2.292030   1.000000
     47         -2.092115   1.000000
     48         -2.056809   1.000000
     49         -2.013749   1.000000
     50         -1.917480   1.000000
     51         -1.861527   1.000000
     52         -1.772777   1.000000
     53         -1.742104   1.000000
     54         -1.500108   1.000000
     55         -1.265721   1.000000
     56         -1.228452   1.000000
     57         -1.139759   1.000000
     58         -0.976548   1.000000
     59         -0.834293   1.000000
     60         -0.787719   1.000000
     61         -0.732236   1.000000
     62         -0.701768   1.000000
     63         -0.627526   1.000000
     64         -0.592533   1.000000
     65         -0.412918   1.000000
     66         -0.356292   1.000000
     67         -0.254301   1.000000
     68         -0.179457   1.000000
     69         -0.164285   1.000000
     70         -0.046250   1.000000
     71          0.088806   1.000000
     72          0.145720   1.000000
     73          0.201109   1.000000
     74          0.279929   1.000000
     75          0.540792   1.000000
     76          0.585666   1.000000
     77          0.674806   1.000000
     78          0.848431   1.000000
     79          0.907911   1.000000
     80          0.993948   1.000000
     81          1.099896   1.000000
     82          1.200904   1.000000
     83          1.405239   0.899269
     84          1.507426   0.053385
     85          1.610875   0.000003
     86          1.687891   0.000000
     87          1.865590   0.000000
     88          1.929869   0.000000
     89          2.103968   0.000000
     90          2.154341   0.000000
     91          2.302220   0.000000
     92          2.589700   0.000000
     93          2.715137   0.000000
     94          2.799715   0.000000
     95          3.137912   0.000000
     96          3.311647   0.000000
     97          3.772683   0.000000
     98          3.811716   0.000000
     99          4.135130   0.000000
    100          4.276348   0.000000
    101          4.333419   0.000000
    102          4.762266   0.000000
    103          4.893579   0.000000
    104          5.022145   0.000000
    105          5.093102   0.000000
    106          5.163782   0.000000
 
  0.2727273E+00  0.1262379E-14  0.1262379E-14  0.6060606E-01
      1        -12.440932   1.000000
      2        -12.172903   1.000000
      3        -11.660077   1.000000
      4        -11.513396   1.000000
      5        -11.474518   1.000000
      6        -11.284877   1.000000
      7        -11.192540   1.000000
      8        -10.725258   1.000000
      9        -10.538580   1.000000
     10        -10.517182   1.000000
     11         -9.998276   1.000000
     12         -9.918849   1.000000
     13         -9.777696   1.000000
     14         -9.738896   1.000000
     15         -9.424938   1.000000
     16         -9.259442   1.000000
     17         -8.946131   1.000000
     18         -8.848674   1.000000
     19         -8.764236   1.000000
     20         -8.595849   1.000000
     21         -6.387108   1.000000
     22         -5.722853   1.000000
     23         -5.624448   1.000000
     24         -5.542258   1.000000
     25         -5.472259   1.000000
     26         -5.415121   1.000000
     27         -5.216445   1.000000
     28         -5.181831   1.000000
     29         -5.122747   1.000000
     30         -4.964573   1.000000
     31         -4.803221   1.000000
     32         -4.732959   1.000000
     33         -4.609307   1.000000
     34         -4.343055   1.000000
     35         -4.133296   1.000000
     36         -4.029103   1.000000
     37         -3.879712   1.000000
     38         -3.619490   1.000000
     39         -3.502252   1.000000
     40         -3.395096   1.000000
     41         -3.317781   1.000000
     42         -3.175485   1.000000
     43         -3.017957   1.000000
     44         -2.900194   1.000000
     45         -2.784052   1.000000
     46         -2.724498   1.000000
     47         -2.666526   1.000000
     48         -2.580393   1.000000
     49         -2.372501   1.000000
     50         -2.292528   1.000000
     51         -2.177070   1.000000
     52         -2.136987   1.000000
     53         -2.092960   1.000000
     54         -1.950908   1.000000
     55         -1.788315   1.000000
     56         -1.694019   1.000000
     57         -1.647765   1.000000
     58         -1.596725   1.000000
     59         -1.548004   1.000000
     60         -1.380146   1.000000
     61         -1.353757   1.000000
     62         -1.273975   1.000000
     63         -1.212049   1.000000
     64         -0.995885   1.000000
     65         -0.909690   1.000000
     66         -0.713836   1.000000
     67         -0.573994   1.000000
     68         -0.442287   1.000000
     69         -0.346725   1.000000
     70         -0.280133   1.000000
     71         -0.214016   1.000000
     72         -0.121229   1.000000
     73         -0.018455   1.000000
     74          0.080235   1.000000
     75          0.140571   1.000000
     76          0.176006   1.000000
     77          0.568204   1.000000
     78          0.638249   1.000000
     79          0.680059   1.000000
     80          1.095745   1.000000
     81          1.196945   1.000000
     82          1.521211   0.022600
     83          1.645675   0.000000
     84          1.726025   0.000000
     85          1.771046   0.000000
     86          1.943827   0.000000
     87          2.100058   0.000000
     88          2.421160   0.000000
     89          2.745706   0.000000
     90          2.796757   0.000000
     91          2.927522   0.000000
     92          3.225447   0.000000
     93          3.352888   0.000000
     94          3.443764   0.000000
     95          3.752283   0.000000
     96          3.954897   0.000000
     97          4.377122   0.000000
     98          4.443945   0.000000
     99          4.546087   0.000000
    100          4.725007   0.000000
    101          4.769291   0.000000
    102          4.865295   0.000000
    103          4.922530   0.000000
    104          5.077452   0.000000
    105          5.143366   0.000000
    106          5.475255   0.000000
 
  0.3636364E+00  0.1262379E-14  0.1262379E-14  0.6060606E-01
      1        -11.766156   1.000000
      2        -11.592814   1.000000
      3        -11.059781   1.000000
      4        -10.984818   1.000000
      5        -10.902755   1.000000
      6        -10.683961   1.000000
      7        -10.606150   1.000000
      8        -10.200776   1.000000
      9        -10.030533   1.000000
     10         -9.949387   1.000000
     11         -9.812654   1.000000
     12         -9.593108   1.000000
     13         -9.399278   1.000000
     14         -9.362913   1.000000
     15         -9.000868   1.000000
     16         -8.919967   1.000000
     17         -8.852339   1.000000
     18         -8.666874   1.000000
     19         -8.583722   1.000000
     20         -8.509530   1.000000
     21         -6.296557   1.000000
     22         -6.236063   1.000000
     23         -6.123141   1.000000
     24         -5.961649   1.000000
     25         -5.567630   1.000000
     26         -5.498685   1.000000
     27         -5.394561   1.000000
     28         -5.356374   1.000000
     29         -5.312465   1.000000
     30         -5.243766   1.000000
     31         -5.097588   1.000000
     32         -4.927989   1.000000
     33         -4.882805   1.000000
     34         -4.785693   1.000000
     35         -4.631795   1.000000
     36         -4.515369   1.000000
     37         -4.408639   1.000000
     38         -4.144196   1.000000
     39         -4.079974   1.000000
     40         -4.032340   1.000000
     41         -3.663392   1.000000
     42         -3.506174   1.000000
     43         -3.361253   1.000000
     44         -3.252148   1.000000
     45         -3.188763   1.000000
     46         -3.040743   1.000000
     47         -2.971489   1.000000
     48         -2.885328   1.000000
     49         -2.805466   1.000000
     50         -2.712288   1.000000
     51         -2.526880   1.000000
     52         -2.249817   1.000000
     53         -2.220218   1.000000
     54         -2.165067   1.000000
     55         -2.094112   1.000000
     56         -1.967034   1.000000
     57         -1.853100   1.000000
     58         -1.822816   1.000000
     59         -1.696190   1.000000
     60         -1.520984   1.000000
     61         -1.463052   1.000000
     62         -1.415257   1.000000
     63         -1.311683   1.000000
     64         -1.223922   1.000000
     65         -1.133237   1.000000
     66         -0.890614   1.000000
     67         -0.817028   1.000000
     68         -0.662948   1.000000
     69         -0.502197   1.000000
     70         -0.458039   1.000000
     71         -0.333081   1.000000
     72         -0.303084   1.000000
     73         -0.202075   1.000000
     74         -0.119417   1.000000
     75          0.131210   1.000000
     76          0.177453   1.000000
     77          0.242398   1.000000
     78          0.322232   1.000000
     79          0.369940   1.000000
     80          0.917483   1.000000
     81          1.470539   0.284488
     82          1.644353   0.000000
     83          1.725517   0.000000
     84          1.986491   0.000000
     85          2.129161   0.000000
     86          2.563743   0.000000
     87          2.985867   0.000000
     88          3.313442   0.000000
     89          3.650793   0.000000
     90          3.700772   0.000000
     91          3.752191   0.000000
     92          3.824401   0.000000
     93          4.105200   0.000000
     94          4.185879   0.000000
     95          4.207895   0.000000
     96          4.303568   0.000000
     97          4.353891   0.000000
     98          4.557700   0.000000
     99          4.639288   0.000000
    100          4.739309   0.000000
    101          4.853576   0.000000
    102          4.949022   0.000000
    103          4.999170   0.000000
    104          5.205448   0.000000
    105          5.342275   0.000000
    106          5.379825   0.000000
 
  0.4545455E+00  0.1262379E-14  0.1262379E-14  0.6060606E-01
      1        -11.139637   1.000000
      2        -10.963513   1.000000
      3        -10.496643   1.000000
      4        -10.426791   1.000000
      5        -10.395532   1.000000
      6        -10.186690   1.000000
      7        -10.068086   1.000000
      8        -10.010071   1.000000
      9         -9.802264   1.000000
     10         -9.679846   1.000000
     11         -9.624049   1.000000
     12         -9.404700   1.000000
     13         -9.356131   1.000000
     14         -9.149215   1.000000
     15         -9.119835   1.000000
     16         -8.937139   1.000000
     17         -8.634782   1.000000
     18         -8.533796   1.000000
     19         -8.501727   1.000000
     20         -8.387773   1.000000
     21         -6.867361   1.000000
     22         -6.666716   1.000000
     23         -6.404023   1.000000
     24         -6.240284   1.000000
     25         -5.960663   1.000000
     26         -5.753360   1.000000
     27         -5.692162   1.000000
     28         -5.611811   1.000000
     29         -5.452337   1.000000
     30         -5.425126   1.000000
     31         -5.365025   1.000000
     32         -5.203425   1.000000
     33         -5.141583   1.000000
     34         -5.127198   1.000000
     35         -4.888021   1.000000
     36         -4.823537   1.000000
     37         -4.657621   1.000000
     38         -4.521772   1.000000
     39         -4.362853   1.000000
     40         -4.129146   1.000000
     41         -3.912000   1.000000
     42         -3.835067   1.000000
     43         -3.455046   1.000000
     44         -3.355648   1.000000
     45         -3.177909   1.000000
     46         -3.116166   1.000000
     47         -3.002086   1.000000
     48         -2.817515   1.000000
     49         -2.737767   1.000000
     50         -2.612871   1.000000
     51         -2.569445   1.000000
     52         -2.475920   1.000000
     53         -2.294106   1.000000
     54         -2.249728   1.000000
     55         -2.139678   1.000000
     56         -2.009909   1.000000
     57         -1.918862   1.000000
     58         -1.897847   1.000000
     59         -1.843154   1.000000
     60         -1.704683   1.000000
     61         -1.637059   1.000000
     62         -1.543826   1.000000
     63         -1.506751   1.000000
     64         -1.316654   1.000000
     65         -1.239615   1.000000
     66         -1.064484   1.000000
     67         -0.999187   1.000000
     68         -0.790235   1.000000
     69         -0.588318   1.000000
     70         -0.500735   1.000000
     71         -0.360295   1.000000
     72         -0.225166   1.000000
     73         -0.165186   1.000000
     74         -0.061241   1.000000
     75          0.014470   1.000000
     76          0.083510   1.000000
     77          0.193119   1.000000
     78          0.332183   1.000000
     79          0.446711   1.000000
     80          0.572335   1.000000
     81          1.393933   0.944888
     82          1.552149   0.002002
     83          1.663734   0.000000
     84          1.940649   0.000000
     85          3.215637   0.000000
     86          3.274699   0.000000
     87          3.682689   0.000000
     88          3.726706   0.000000
     89          3.773244   0.000000
     90          4.137729   0.000000
     91          4.220819   0.000000
     92          4.444326   0.000000
     93          4.508438   0.000000
     94          4.572652   0.000000
     95          4.686118   0.000000
     96          4.794323   0.000000
     97          4.842479   0.000000
     98          4.880946   0.000000
     99          4.975924   0.000000
    100          5.087967   0.000000
    101          5.157907   0.000000
    102          5.294940   0.000000
    103          5.338004   0.000000
    104          5.408762   0.000000
    105          5.481212   0.000000
    106          5.544551   0.000000
 
  0.1262379E-14  0.3333333E+00  0.1262379E-14  0.6060606E-01
      1        -13.259205   1.000000
      2        -12.971523   1.000000
      3        -12.928782   1.000000
      4        -12.570128   1.000000
      5        -12.177652   1.000000
      6        -11.875106   1.000000
      7        -11.759207   1.000000
      8        -11.470148   1.000000
      9        -11.316087   1.000000
     10        -11.050010   1.000000
     11        -10.985100   1.000000
     12        -10.825041   1.000000
     13        -10.703729   1.000000
     14        -10.223093   1.000000
     15        -10.117298   1.000000
     16         -9.991744   1.000000
     17         -9.844601   1.000000
     18         -9.527765   1.000000
     19         -9.002250   1.000000
     20         -8.758322   1.000000
     21         -6.740623   1.000000
     22         -6.270492   1.000000
     23         -6.062302   1.000000
     24         -6.012665   1.000000
     25         -5.882744   1.000000
     26         -5.560879   1.000000
     27         -5.448628   1.000000
     28         -5.390753   1.000000
     29         -5.373786   1.000000
     30         -5.170903   1.000000
     31         -5.052686   1.000000
     32         -4.582039   1.000000
     33         -4.435743   1.000000
     34         -3.842201   1.000000
     35         -3.629395   1.000000
     36         -3.442576   1.000000
     37         -3.411895   1.000000
     38         -3.390919   1.000000
     39         -2.886053   1.000000
     40         -2.673698   1.000000
     41         -2.289294   1.000000
     42         -2.064477   1.000000
     43         -2.034095   1.000000
     44         -1.770196   1.000000
     45         -1.591564   1.000000
     46         -1.466189   1.000000
     47         -1.233345   1.000000
     48         -1.020766   1.000000
     49         -1.006834   1.000000
     50         -0.854879   1.000000
     51         -0.806480   1.000000
     52         -0.718867   1.000000
     53         -0.572622   1.000000
     54         -0.505277   1.000000
     55         -0.435973   1.000000
     56         -0.320805   1.000000
     57         -0.228762   1.000000
     58         -0.184457   1.000000
     59         -0.095426   1.000000
     60         -0.002327   1.000000
     61          0.059532   1.000000
     62          0.083264   1.000000
     63          0.087887   1.000000
     64          0.113528   1.000000
     65          0.180861   1.000000
     66          0.263968   1.000000
     67          0.350576   1.000000
     68          0.455141   1.000000
     69          0.559128   1.000000
     70          0.568627   1.000000
     71          0.685690   1.000000
     72          0.771784   1.000000
     73          0.802278   1.000000
     74          0.819132   1.000000
     75          0.891264   1.000000
     76          1.009865   1.000000
     77          1.086758   1.000000
     78          1.093644   1.000000
     79          1.132397   1.000000
     80          1.189578   1.000000
     81          1.204983   1.000000
     82          1.295212   0.999994
     83          1.323549   0.999833
     84          1.443241   0.580246
     85          1.528617   0.013474
     86          1.548337   0.002803
     87          1.691787   0.000000
     88          1.744682   0.000000
     89          1.839140   0.000000
     90          1.857318   0.000000
     91          1.942523   0.000000
     92          2.374235   0.000000
     93          2.451888   0.000000
     94          2.634731   0.000000
     95          2.770256   0.000000
     96          2.996321   0.000000
     97          3.302247   0.000000
     98          3.373605   0.000000
     99          3.533802   0.000000
    100          3.779439   0.000000
    101          3.881760   0.000000
    102          3.986593   0.000000
    103          4.064277   0.000000
    104          4.144206   0.000000
    105          4.356557   0.000000
    106          4.438174   0.000000
 
  0.9090909E-01  0.3333333E+00  0.1262379E-14  0.6060606E-01
      1        -13.155257   1.000000
      2        -12.870972   1.000000
      3        -12.827204   1.000000
      4        -12.471938   1.000000
      5        -12.079866   1.000000
      6        -11.780492   1.000000
      7        -11.663912   1.000000
      8        -11.375914   1.000000
      9        -11.222531   1.000000
     10        -10.960837   1.000000
     11        -10.893995   1.000000
     12        -10.740058   1.000000
     13        -10.616873   1.000000
     14        -10.142071   1.000000
     15        -10.027631   1.000000
     16         -9.910428   1.000000
     17         -9.756740   1.000000
     18         -9.456482   1.000000
     19         -8.933228   1.000000
     20         -8.702681   1.000000
     21         -6.660494   1.000000
     22         -6.185451   1.000000
     23         -5.979091   1.000000
     24         -5.936247   1.000000
     25         -5.828213   1.000000
     26         -5.488035   1.000000
     27         -5.388703   1.000000
     28         -5.332987   1.000000
     29         -5.306391   1.000000
     30         -5.113151   1.000000
     31         -5.016207   1.000000
     32         -4.531302   1.000000
     33         -4.386281   1.000000
     34         -3.811163   1.000000
     35         -3.588373   1.000000
     36         -3.417422   1.000000
     37         -3.380472   1.000000
     38         -3.360614   1.000000
     39         -2.871019   1.000000
     40         -2.695766   1.000000
     41         -2.338734   1.000000
     42         -2.087154   1.000000
     43         -2.014834   1.000000
     44         -1.824763   1.000000
     45         -1.750390   1.000000
     46         -1.664489   1.000000
     47         -1.540372   1.000000
     48         -1.497383   1.000000
     49         -1.349611   1.000000