Automatically generated mesh
      17
Reciprocal lattice
    0.00000000000000    0.00000000000000    0.00000000000000             1
    0.09090909090909    0.00000000000000    0.00000000000000             2
    0.18181818181818    0.00000000000000    0.00000000000000             2
    0.27272727272727    0.00000000000000    0.00000000000000             2
    0.36363636363637    0.00000000000000    0.00000000000000             2
    0.45454545454545    0.00000000000000    0.00000000000000             2
    0.00000000000000    0.33333333333334    0.00000000000000             2
    0.09090909090909    0.33333333333334    0.00000000000000             2
    0.09090909090909   -0.33333333333333    0.00000000000000             2
    0.18181818181818    0.33333333333334    0.00000000000000             2
    0.18181818181818   -0.33333333333333    0.00000000000000             2
    0.27272727272727    0.33333333333334    0.00000000000000             2
    0.27272727272727   -0.33333333333333    0.00000000000000             2
    0.36363636363637    0.33333333333334    0.00000000000000             2
    0.36363636363637   -0.33333333333333    0.00000000000000             2
    0.45454545454545    0.33333333333334    0.00000000000000             2
    0.45454545454545   -0.33333333333333    0.00000000000000             2
