    #         X           Y           Z       CHARGE      MIN DIST   ATOMIC VOL
 --------------------------------------------------------------------------------
    1    1.536481    1.303721   23.567868   11.131030     0.845438     8.290010
    2    3.072993    3.847021   21.763620   11.143238     0.816325     9.415890
    3    3.072956    1.987509   27.944136   11.774668     0.831469    78.384617
    4    3.072981    3.773665   25.205040   11.207796     0.809967     9.419175
    5    1.536429    6.311695   23.528772   11.137245     0.849828     8.260438
    6    1.536582    8.075783   20.717028   11.181741     0.778823     9.254178
    7    1.536435    4.825159   28.355832   12.264203     0.911987    98.464087
    8    3.072987    7.322583   26.451684   11.215933     0.794822     9.952425
    9    3.072993    9.287610   23.567868   11.131027     0.845448     8.290010
   10    1.536509   11.830893   21.763584   11.143319     0.816323     9.417063
   11    1.536478    9.971478   27.944208   11.774871     0.831540    78.435313
   12    1.536487   11.757569   25.204968   11.207884     0.809963     9.419645
   13    3.072984   14.295599   23.528700   11.137342     0.849840     8.261376
   14    3.072925    0.091879   20.717028   11.181678     0.778809     9.253239
   15    3.072769   12.808936   28.355760   12.264188     0.912041    98.419963
   16    1.536496   15.306440   26.451648   11.215921     0.794829     9.952660
   17    0.000003    0.270063   22.545036    7.222126     0.902656    12.457195
   18    0.000135    3.700165   19.977408    7.446992     0.894053    15.195027
   19    1.536509    2.910271   22.359744    7.240377     0.881170    13.460089
   20    3.072987    1.992747   24.575076    7.224117     0.881957    13.598330
   21    1.536460    1.057498   27.238860    7.231838     0.880006    18.001159
   22    1.536521    6.443269   19.947996    7.397377     0.827692    14.796029
   23    3.072925    5.595716   22.531428    7.217847     0.888105    13.649965
   24    1.536484    4.721736   24.741828    7.234472     0.857050    12.889991
   25    3.072839    3.723494   27.081180    7.249011     0.899153    14.668819
   26    0.000089    8.950578   19.969524    7.385369     0.890239    13.159197
   27    1.536518    8.253952   22.545036    7.222128     0.902656    12.457430
   28    3.072981    7.348658   24.545592    7.208823     0.955103    12.517045
   29    1.536490    6.491652   27.079632    7.243942     0.852944    16.835849
   30    1.536546   11.683543   19.977372    7.446965     0.894085    15.194793
   31    0.000003   10.894160   22.359672    7.240345     0.881147    13.459385
   32    1.536499    9.976619   24.575076    7.224127     0.881972    13.598800
   33    3.072977    9.041291   27.238860    7.231637     0.879913    18.004914
   34    0.000006   14.427110   19.948032    7.397397     0.827719    14.796029
   35    1.536484   13.579652   22.531248    7.217690     0.888073    13.649026
   36    3.072993   12.705640   24.741684    7.234513     0.857099    12.889756
   37    1.536377   11.707462   27.081036    7.248929     0.899282    14.663656
   38    1.536429    0.966737   19.969560    7.385294     0.890264    13.160840
   39    1.536487   15.332515   24.545592    7.208866     0.955105    12.517280
   40    0.000000   14.475572   27.079668    7.243916     0.852948    16.828573
   41    0.000006   14.357666    8.252928    1.331825     0.647954     5.759188
   42    0.000006    9.034840    8.253972    1.335061     0.646897     5.670469
   43    0.000009    3.711806    8.252316    1.337009     0.634661     5.646060
   44    1.536496    1.050935    8.253972    1.335065     0.646908     5.670469
   45    1.536509   11.695694    8.252352    1.336931     0.634669     5.645825
   46    1.536509    6.373794    8.252892    1.331663     0.647929     5.756841
   47    0.000022    0.167502   10.772460    1.356354     0.654226     5.049206
   48    0.000018    5.488349   10.769868    1.353068     0.650903     5.033246
   49    0.000025   10.813315   10.772928    1.353185     0.650087     5.052492
   50    1.536515   13.472237   10.769904    1.353100     0.650913     5.033480
   51    1.536518    8.151375   10.772460    1.356215     0.654237     5.049206
   52    1.536515    2.829442   10.772892    1.353111     0.650095     5.052257
   53    3.072996   14.357012   13.281084    1.342776     0.640627     4.902280
   54    0.000006    3.716867   13.291992    1.346236     0.646597     4.929037
   55    0.000031    9.041003   13.285764    1.348392     0.641298     4.933731
   56    1.536496    1.057131   13.285800    1.348415     0.641343     4.933966
   57    1.536524    6.373091   13.281048    1.342423     0.640585     4.900872
   58    1.536512   11.700772   13.292028    1.346239     0.646615     4.929037
   59    3.072965    1.949282   15.804216    1.371372     0.652208     5.109994
   60    0.000025    7.261299   15.783552    1.345781     0.646800     4.973631
   61    0.000025   12.590193   15.819840    1.358783     0.642878     5.067747
   62    1.536543    9.933155   15.804216    1.371380     0.652224     5.109994
   63    1.536503    4.606304   15.819840    1.358782     0.642893     5.067747
   64    1.536478   15.245203   15.783588    1.345781     0.646822     4.974100
   65    3.072993   14.357427   18.301428    1.206516     0.637762     4.465025
   66    0.000000    3.743326   18.374760    1.175399     0.629236     4.426534
   67    0.000077    9.034025   18.240480    1.237068     0.647685     4.542478
   68    1.536543   11.727135   18.374724    1.175249     0.629252     4.426534
   69    1.536521    6.373538   18.301428    1.206572     0.637761     4.465729
   70    1.536444    1.050169   18.240516    1.237081     0.647700     4.542478
   71    3.072993    1.937243    7.656804    6.023780     0.672345    15.795637
   72    0.000009   12.582976    7.656516    6.029209     0.670854    15.810189
   73    0.000003    7.260660    7.656876    6.032548     0.671614    15.916745
   74    1.536499   15.244517    7.656912    6.032398     0.671651    15.913694
   75    1.536503    9.921147    7.656840    6.023781     0.672382    15.794229
   76    1.536509    4.599103    7.656444    6.029230     0.670782    15.810423
   77    0.000009   14.360556   10.138032    6.656051     1.026272    15.605291
   78    0.000018    3.714313   10.137240    6.654299     1.014773    15.590036
   79    3.072996    9.038225   10.139652    6.656258     1.026559    15.592852
   80    1.536506    1.054352   10.139652    6.656041     1.026563    15.592148
   81    1.536521    6.376684   10.137996    6.655992     1.026263    15.604822
   82    1.536518   11.698185   10.137276    6.654301     1.014778    15.590036
   83    0.000003    0.167470   12.663000    6.645492     1.005586    15.622660
   84    0.000012    5.487518   12.657528    6.653765     1.016376    15.619608
   85    0.000015   10.814257   12.663432    6.651015     1.020381    15.637446
   86    1.536506   13.471407   12.657528    6.653707     1.016376    15.619374
   87    1.536533    8.151343   12.662964    6.645554     1.005581    15.622894
   88    1.536503    2.830384   12.663396    6.651095     1.020392    15.637681
   89    0.000043    9.044356   15.171948    6.647790     1.019844    15.525726
   90    0.000015    3.719981   15.179004    6.649707     1.035342    15.597311
   91    3.072981   14.358081   15.158808    6.655552     1.021338    15.534411
   92    1.536466    1.060484   15.171948    6.647777     1.019859    15.525257
   93    1.536527    6.374177   15.158772    6.655802     1.021332    15.535584
   94    1.536506   11.703886   15.179004    6.649734     1.035356    15.597311
   95    1.536481   15.247982   17.659188    6.672661     1.026152    15.610220
   96    1.536509    4.604931   17.709480    6.661155     1.004883    16.018841
   97    1.536573    9.939175   17.716032    6.653275     1.010002    15.985513
   98    0.000034   12.588820   17.709480    6.661274     1.004883    16.019780
   99    0.000025    7.264077   17.659152    6.672473     1.026153    15.609047
  100    3.072947    1.955334   17.716068    6.653180     1.010035    15.985513
  101    1.536515   15.245954    6.551820    0.966456     0.369278    58.031715
  102    3.072996    1.936061    6.551748    0.966148     0.375222    55.358897
  103    1.536496    4.599869    6.551388    0.968512     0.369334    56.163699
  104    0.000012    7.262097    6.551784    0.966391     0.369301    58.046737
  105    1.536512    9.919997    6.551748    0.966150     0.375240    55.332610
  106    0.000015   12.583710    6.551424    0.968446     0.369284    56.169802
 --------------------------------------------------------------------------------
    VACUUM CHARGE:               0.0000
    VACUUM VOLUME:               0.0000
    NUMBER OF ELECTRONS:       598.0000
