 running    2 mpi-ranks, with    2 threads/rank, on    1 nodes
 distrk:  each k-point on    2 cores,    1 groups
 distr:  one band on    1 cores,    2 groups
 OpenACC runtime initialized ...    2 GPUs detected
 vasp.6.4.2 20Jul23 (build Jun 18 2025 17:29:07) complex                         
 POSCAR found type information on POSCAR GaO SiC H 
 POSCAR found :  5 types and     106 ions
 scaLAPACK will be used selectively (only on CPU)
 LDA part: xc-table for Pade appr. of Perdew
 found WAVECAR, reading the header
 POSCAR, INCAR and KPOINTS ok, starting setup
 FFT: planning ... GRIDC
 FFT: planning ... GRID_SOFT
 FFT: planning ... GRID
 reading WAVECAR
 the WAVECAR file was read successfully
 augmentation electrons    598.0892880055497     
 soft         electrons    0.000000000000000     
 total        electrons    598.0892880055497     
 augmentation electrons    742.7418014888610     
 soft         electrons    0.000000000000000     
 total        electrons    742.7418014888610     
 WARNING: dimensions on CHGCAR file are different
 entering main loop
       N       E                     dE             d eps       ncg     rms          rms(c)
DAV:   1    -0.804413957992E+03   -0.80441E+03   -0.42548E+02 13628   0.507E+01    0.597E+01
DAV:   2    -0.712459496964E+03    0.91954E+02   -0.33776E+02 15280   0.503E+01    0.248E+01
DAV:   3    -0.709364889327E+03    0.30946E+01   -0.28704E+01 10968   0.132E+01    0.123E+01
DAV:   4    -0.709169679567E+03    0.19521E+00   -0.12610E+01 13400   0.103E+01    0.476E+00
DAV:   5    -0.708940659288E+03    0.22902E+00   -0.17879E+00 12272   0.559E+00    0.241E+00
DAV:   6    -0.708912875702E+03    0.27784E-01   -0.79845E-01 11480   0.253E+00    0.639E-01
DAV:   7    -0.708912364528E+03    0.51117E-03   -0.12284E-01 10872   0.154E+00    0.440E-01
DAV:   8    -0.708908374295E+03    0.39902E-02   -0.43319E-02 11728   0.821E-01    0.263E-01
DAV:   9    -0.708905637172E+03    0.27371E-02   -0.99378E-03 11512   0.455E-01    0.188E-01
DAV:  10    -0.708903853361E+03    0.17838E-02   -0.51396E-03 11536   0.304E-01    0.107E-01
DAV:  11    -0.708904151191E+03   -0.29783E-03   -0.35046E-03 12576   0.287E-01    0.805E-02
DAV:  12    -0.708905613551E+03   -0.14624E-02   -0.18448E-03 12824   0.179E-01    0.820E-02
DAV:  13    -0.708906191964E+03   -0.57841E-03   -0.11213E-03 11584   0.994E-02    0.613E-02
DAV:  14    -0.708906737069E+03   -0.54510E-03   -0.57808E-04 11000   0.930E-02    0.309E-02
DAV:  15    -0.708907268681E+03   -0.53161E-03   -0.31687E-04 11512   0.558E-02    0.279E-02
DAV:  16    -0.708907965505E+03   -0.69682E-03   -0.14445E-04 12256   0.504E-02    0.163E-02
DAV:  17    -0.708908336218E+03   -0.37071E-03   -0.56173E-05 10504   0.241E-02    0.105E-02
DAV:  18    -0.708908794038E+03   -0.45782E-03   -0.61483E-05 11824   0.212E-02    0.116E-02
DAV:  19    -0.708909166243E+03   -0.37221E-03   -0.23699E-05 10536   0.164E-02    0.688E-03
DAV:  20    -0.708909381852E+03   -0.21561E-03   -0.22477E-05  9888   0.104E-02    0.453E-03
DAV:  21    -0.708909558933E+03   -0.17708E-03   -0.12877E-05  8024   0.769E-03    0.287E-03
DAV:  22    -0.708909624060E+03   -0.65127E-04   -0.49503E-06  8112   0.526E-03    0.158E-03
DAV:  23    -0.708909663344E+03   -0.39284E-04   -0.21248E-06  6576   0.395E-03    0.111E-03
DAV:  24    -0.708909678687E+03   -0.15343E-04   -0.79479E-07  6464   0.291E-03    0.773E-04
DAV:  25    -0.708909686584E+03   -0.78970E-05   -0.47003E-07  6136   0.185E-03    0.514E-04
DAV:  26    -0.708909690352E+03   -0.37685E-05   -0.32078E-07  6064   0.163E-03    0.448E-04
DAV:  27    -0.708909691935E+03   -0.15830E-05   -0.20262E-07  6016   0.125E-03    0.304E-04
DAV:  28    -0.708909692873E+03   -0.93778E-06   -0.14751E-07  5864   0.913E-04
   1 F= -.73215803E+03 E0= -.73215803E+03  d E =-.679716E-08
 writing wavefunctions
 augmentation electrons    148.2381530895572     
 soft         electrons    449.8294480169376     
 total        electrons    598.0676011064949     
