25440
Time=700001.00000886 pbc="T T T" Lattice="203.28868118 0.00000000 0.00000000 0.00000000 36.87600000 0.00000000 0.00000000 0.00000000 37.25814492" energy=-177077.24383163 virial="3538.58462413 -491.84831131 -551.57284115 -491.84831131 2122.21031183 2658.81349525 -551.57284115 2658.81349525 1889.36873293" stress="0.01649511 -0.00178862 -0.00201338 -0.00178862 0.01143390 0.00958187 -0.00201338 0.00958187 0.01065384" Properties=species:S:1:pos:R:3
Ga 109.11850850 1.15427497 33.16086157
Ga 109.88628090 1.43420886 19.63036916
Ga 110.36382006 36.48648823 27.31639678
Ga 109.77550513 0.05375592 12.53587508
Ga 109.40120198 1.80914578 4.76984907
Ga 110.30381399 1.97810814 0.20795291
Ga 110.21754679 36.54615661 22.60244940
Ga 110.18935379 0.92922937 30.03016722
Ga 110.11213950 1.64298019 15.32587680
Ga 110.18486543 0.40702197 7.71580617
Ga 107.59056584 35.93954686 31.25310111
Ga 107.71334773 0.06534110 17.62633397
Ga 108.27707032 0.93399125 25.03696374
Ga 107.75752382 2.00278937 10.16093735
Ga 107.68813412 0.50429275 1.73426820
Ga 107.68542765 0.06806658 35.66779185
Ga 107.45574878 1.74239284 22.17384917
Ga 107.50254264 1.71544905 27.88258451
Ga 107.13559808 0.39697988 14.49595806
Ga 107.47987484 0.23328174 7.46235868
Ga 114.78078033 0.56210349 0.92735560
Ga 114.81130338 1.27670105 23.40218519
Ga 114.63061673 36.32177152 30.82086264
Ga 114.62006892 36.87474564 16.02257898
Ga 114.58926833 1.92731508 8.53463886
Ga 114.71568111 0.85053077 33.44241386
Ga 114.70307033 1.46027713 18.75000888
Ga 114.70336482 36.50046111 26.13533043
Ga 114.75271297 0.06351008 11.51650336
Ga 114.80387091 1.86121570 3.83704421
Ga 112.88519963 2.23274976 35.76872477
Ga 113.00440973 36.78678423 21.08311478
Ga 113.08263210 0.98627523 28.48326178
Ga 112.75913518 1.64901011 13.77957664
Ga 113.00283121 0.43156965 6.30591325
Ga 111.86542802 36.35257193 32.22079904
Ga 111.83526742 36.74090966 17.48056171
Ga 111.90755976 1.38545449 24.72002341
Ga 111.69465202 1.87075620 10.27784328
Ga 111.93323090 0.51819091 2.51637825
Ga 119.54685689 2.19328100 34.34816217
Ga 119.27274390 0.00159695 19.26814087
Ga 119.50709890 1.01634386 26.88291963
Ga 119.26818813 1.64071854 12.17842971
Ga 119.43637362 0.49734512 4.63032316
Ga 119.43967598 0.72152675 37.09404179
Ga 119.41515129 1.36199075 22.14980450
Ga 119.42199582 36.29866885 29.67990617
Ga 119.53536102 0.04596175 14.81418913
Ga 119.53836054 1.69363206 7.49338722
Ga 117.60325146 0.87531473 32.00970277
Ga 117.52381999 1.46014289 17.04783169
Ga 117.70919521 36.60519535 24.55853678
Ga 117.45564371 0.21523913 9.75414656
Ga 117.56728917 2.03010212 2.20204013
Ga 116.54904525 2.23144464 35.94456576
Ga 116.65083338 36.77187122 20.82840866
Ga 116.58192373 1.10184213 28.30960669
Ga 116.30681866 1.72098801 13.81895589
Ga 116.49892674 0.48182697 6.24986528
Ga 124.24621331 2.21061295 0.68896413
Ga 124.27179443 36.66865683 22.63549632
Ga 123.99583533 1.06624694 30.54179845
Ga 124.20174960 1.55189539 15.58054179
Ga 124.15781300 0.14098426 8.04175055
Ga 124.33459216 2.32896669 33.24396148
Ga 124.16789446 36.73244415 18.20845625
Ga 124.16715608 1.08152128 25.77024198
Ga 124.14908247 1.74512596 10.87041250
Ga 124.25982841 0.43962955 3.58579437
Ga 122.42795526 0.68780786 35.71017548
Ga 122.27357897 1.22208185 20.49859358
Ga 122.41728933 36.40478808 28.17379389
Ga 122.39200965 0.14955422 13.13954205
Ga 122.25599745 1.89268797 5.91882772
Ga 121.35854060 0.75387473 31.98570014
Ga 121.21641979 1.52679132 17.18553272
Ga 121.36587634 36.47196710 24.46449367
Ga 121.33181673 0.28925696 9.86605164
Ga 121.41304491 2.06723867 2.29478799
Ga 128.70701851 0.76898013 33.96835223
Ga 128.92240968 1.26211148 18.94125310
Ga 128.72981775 36.41835310 26.45301451
Ga 128.83216119 36.86327825 11.56780875
Ga 128.85518137 2.09376209 3.89585584
Ga 128.98059038 2.17295879 36.78868303
Ga 129.09379153 36.55756819 21.69549391
Ga 128.78483130 0.76770020 29.18108734
Ga 128.87580851 1.47621229 14.44794283
Ga 128.93029709 0.18816957 6.69075807
Ga 127.15604795 2.24157665 31.56670033
Ga 126.98171317 36.69656370 16.63359277
Ga 127.05172075 1.09834280 23.98678318
Ga 127.14093231 1.67526039 9.28825673
Ga 127.11805515 0.56203708 1.67249030
Ga 126.05009001 0.65106284 35.52304392
Ga 126.00691912 1.12692413 20.45911398
Ga 125.81462995 36.46973951 27.99530771
Ga 125.94682669 36.83006993 13.18515647
Ga 126.08543566 1.87372689 5.84117934
Ga 133.47502435 0.33966925 0.21241925
Ga 133.64419225 1.08247123 22.52112614
Ga 133.54817433 2.16048984 29.99255165
Ga 133.76895629 36.82453430 15.12516807
Ga 133.36008371 1.64200326 7.52445217
Ga 133.82313465 0.45342147 32.72348739
Ga 133.59781306 1.34904551 17.82693716
Ga 133.65937857 36.17952545 25.24267252
Ga 133.65003237 36.75967180 10.52976310
Ga 133.72900652 1.78084021 2.73843479
Ga 131.82225075 2.10117658 34.95167371
Ga 131.90363409 36.73628224 20.01059268
Ga 131.73706658 0.81578872 27.60262977
Ga 131.81912483 1.42063881 12.68882855
Ga 131.73978585 0.10264201 5.27303353
Ga 130.70091019 2.22750833 31.59153626
Ga 130.92103089 36.70650343 16.61271317
Ga 130.66378877 1.07273022 24.26397074
Ga 130.66061614 1.68759987 9.23801947
Ga 130.64565287 0.15395834 1.68498807
Ga 138.07754127 2.27153218 33.29960940
Ga 138.33213939 36.47879224 18.52413038
Ga 138.38825560 0.91932026 25.95286992
Ga 138.20354255 1.75618318 11.13922145
Ga 138.13953061 0.44332164 3.60433018
Ga 138.56271698 0.44083307 36.23317748
Ga 138.17987562 0.99943029 21.35284289
Ga 138.34456732 2.23251709 28.63491107
Ga 138.42419869 36.69423960 13.94173718
Ga 138.31396629 1.72990346 6.36919688
Ga 136.55448158 1.99324947 1.21060856
Ga 136.51616831 36.27029947 23.54432801
Ga 136.55569715 0.67295078 31.05651459
Ga 136.54442426 1.36470037 16.18539095
Ga 136.43609857 0.09416568 8.73185110
Ga 135.31377635 2.10597546 35.07538466
Ga 135.45708466 36.66452844 20.10833454
Ga 135.36301320 0.75519061 27.42089130
Ga 135.33820514 1.48417723 12.76570301
Ga 135.42798365 0.29770044 5.33144097
Ga 142.94450344 1.88463829 36.99397342
Ga 143.11948283 36.38149785 22.11855123
Ga 142.83649564 0.72557912 29.52096176
Ga 142.97879119 1.25865242 14.75913308
Ga 143.01569134 0.17588896 7.18090984
Ga 142.89637390 2.19846385 32.27687850
Ga 143.02372877 36.42900244 17.45845265
Ga 143.03556163 0.94812326 24.78724953
Ga 142.87100820 1.48353663 9.93803058
Ga 143.09802838 0.23561903 2.50483626
Ga 141.21816471 0.48749877 34.58565746
Ga 141.16970084 1.17970333 19.80627990
Ga 141.16337347 2.38920027 27.23822581
Ga 141.26964662 36.48251696 12.26224221
Ga 141.21180767 1.77493854 4.84469964
Ga 140.03419972 2.06394619 1.24887213
Ga 140.13245050 36.40458794 23.55300615
Ga 140.03383990 0.76782178 31.20500450
Ga 140.27524897 1.24446931 16.39395612
Ga 139.93675799 0.09434109 8.93637658
Ga 147.74593824 0.57544623 33.00421037
Ga 147.48944568 1.23567497 17.88724141
Ga 147.59024711 2.56000125 25.52259508
Ga 147.78423878 36.83139488 10.53993913
Ga 147.65539699 1.71665903 3.14944228
Ga 147.58740767 2.00429656 35.69663464
Ga 147.53369808 36.36422741 20.76802643
Ga 147.81301577 0.73332588 28.15751370
Ga 147.76571353 1.31845431 13.36837255
Ga 147.82665968 0.13546869 5.79978065
Ga 146.03896881 0.28327917 0.76839273
Ga 145.88715986 1.10776197 23.11659948
Ga 145.86304229 2.10418844 30.52512400
Ga 145.89346041 36.42233380 15.71829091
Ga 145.84911438 1.50654692 8.17490108
Ga 144.76377902 0.49697346 34.68038594
Ga 144.78676703 0.98098877 19.80924444
Ga 144.87313351 2.30455795 27.17181745
Ga 144.88038965 36.70025262 12.30906603
Ga 144.76976517 1.78562250 4.54624716
Ga 152.59333709 0.24336929 36.45498670
Ga 152.36007286 1.02026439 21.48580503
Ga 152.35168654 2.23134052 28.96815628
Ga 152.08317523 36.65113069 13.96217350
Ga 152.50701533 1.57763448 6.62280073
Ga 152.36519884 0.55579920 31.75450285
Ga 152.61667428 1.25560655 16.78699200
Ga 152.34881926 2.41973631 24.34851174
Ga 152.50876125 36.75130408 9.36465947
Ga 152.48845601 1.71050754 1.88618286
Ga 150.68517700 1.97750951 34.30803120
Ga 150.61408531 36.47904724 19.21386907
Ga 150.54712895 0.80017970 26.54940310
Ga 150.54508842 1.50509624 11.45274508
Ga 150.68442969 0.29199747 4.34188891
Ga 149.66698007 0.38872244 0.77401075
Ga 149.57762063 1.06703272 23.25551148
Ga 149.65586957 2.02486473 30.47258714
Ga 149.41565340 36.35093485 15.69972139
Ga 149.46430469 1.60468960 8.31679131
Ga 156.92978881 2.11944103 32.36720728
Ga 156.99354620 36.48263828 17.60916771
Ga 156.96022756 0.89936169 24.98798082
Ga 157.12815684 1.34619636 10.23444541
Ga 157.14718257 0.20984971 2.66977781
Ga 157.25502283 0.42048807 35.28289301
Ga 157.26573217 0.96637923 20.34833708
Ga 157.06373374 2.30091689 27.83636385
Ga 157.29408722 36.55289671 12.87198088
Ga 157.37033856 1.56622426 5.45721901
Ga 155.41556964 1.99846871 0.23289406
Ga 155.38382830 2.38057659 22.62440249
Ga 155.22522028 0.71267457 30.04285118
Ga 155.27544424 1.10014375 15.13966579
Ga 155.44946261 36.77642378 7.70038046
Ga 154.35710834 1.96171305 34.06994924
Ga 154.22430207 36.37997399 19.24909762
Ga 154.16228215 0.77426360 26.56068057
Ga 154.09908262 1.38271880 11.81365661
Ga 154.26623444 0.18482784 4.27731516
Ga 161.69624917 1.92592453 35.78404726
Ga 161.95340452 2.52537699 21.09460489
Ga 161.79729374 0.68452864 28.56705712
Ga 161.88151924 1.12217699 13.63016324
Ga 161.89964762 36.71138083 6.04342615
Ga 161.71697490 1.98937813 31.29204318
Ga 161.93061767 36.42160733 16.29268714
Ga 161.80408688 0.93818077 23.85971796
Ga 161.82836217 1.33985352 8.69376818
Ga 162.01113157 0.00790297 1.51011205
Ga 160.04177198 0.30866902 33.47099836
Ga 160.09522132 0.92983109 18.69749071
Ga 159.95443011 2.43240207 26.24750277
Ga 160.19010851 36.66689138 11.09199987
Ga 159.92173128 1.45633760 3.77624047
Ga 158.80729834 1.84666669 0.62035645
Ga 159.06168623 2.47756761 22.74579203
Ga 158.91739915 0.70390662 30.17108648
Ga 158.93262622 1.17993379 15.33445312
Ga 158.85414104 36.72617423 7.80505537
Ga 166.47052948 0.47847021 31.89971088
Ga 166.53203931 1.11328946 17.09183589
Ga 166.53795581 2.42141167 24.52892031
Ga 166.49960025 36.72417864 9.66499494
Ga 166.66348790 1.61803390 2.18076398
Ga 166.70895482 1.94091118 34.62932903
Ga 166.50119197 2.58294487 19.90747909
Ga 166.57387810 0.66248233 27.19812873
Ga 166.47342442 1.32858007 12.41943225
Ga 166.67893807 36.86261393 4.93039953
Ga 164.81965179 0.34521407 37.03728813
Ga 164.71357791 0.80033901 22.16096224
Ga 164.73044997 2.12535408 29.62122030
Ga 164.78924731 36.35090289 14.73447273
Ga 164.82368206 1.30006118 7.36776872
Ga 163.81925816 0.26722706 33.50789973
Ga 163.71464679 1.07505071 18.59372219
Ga 163.75712168 2.19483356 26.05879150
Ga 163.59148090 36.61351586 11.16240168
Ga 163.76786445 1.55810566 3.84491663
Ga 171.28155949 0.15599559 35.27898052
Ga 171.13961880 0.85141135 20.51648417
Ga 171.29379645 1.86665074 27.93008283
Ga 171.38343918 36.34832462 13.08111827
Ga 171.44366588 1.36932240 5.62822336
Ga 171.36333236 0.45286508 30.76215059
Ga 171.24595320 1.04031090 15.66931354
Ga 171.48392989 2.13305285 23.20275944
Ga 171.36003910 36.57877992 8.33958856
Ga 171.42217476 1.66055994 0.94298383
Ga 169.58048155 1.79273045 32.95656246
Ga 169.49306913 2.56841474 18.05805686
Ga 169.50476449 0.57485254 25.59809487
Ga 169.42529659 1.44358570 10.68621934
Ga 169.60913517 0.01026324 3.15862038
Ga 168.55462014 0.20298768 37.08536051
Ga 168.36017539 0.97883595 22.19894219
Ga 168.47815913 1.98181367 29.55014318
Ga 168.44545257 2.63020533 14.68491388
Ga 168.52160509 1.50268784 7.16266448
Ga 176.02675493 1.77402728 31.45806305
Ga 176.06538685 2.51390888 16.50570832
Ga 176.10125260 0.59877212 23.92207062
Ga 176.10423822 1.21740047 8.98528437
Ga 176.13191716 0.15511426 1.57072585
Ga 176.17261703 0.10721814 34.12046129
Ga 175.94488536 0.87758323 19.16412056
Ga 176.19683752 1.99047495 26.69268758
Ga 176.15431900 2.54470397 11.87163043
Ga 176.20429669 1.60411772 4.43771656
Ga 174.22872759 1.58201072 36.49215812
Ga 174.15718416 2.36110291 21.56871995
Ga 174.27880403 0.33977897 28.97640705
Ga 174.38320179 1.11285817 14.14689829
Ga 174.31906557 36.63192519 6.76325202
Ga 173.13568850 1.78649638 32.97805342
Ga 173.14243243 2.53301052 18.05717266
Ga 173.21950415 0.62518643 25.49396942
Ga 173.22705676 1.14869169 10.65003812
Ga 173.28753202 0.08920674 3.35328165
Ga 180.79612185 1.72672519 34.78095062
Ga 180.76106695 2.27756209 19.93013156
Ga 180.68259252 0.41586835 27.32855197
Ga 180.82603638 1.14935601 12.40945456
Ga 180.72400096 36.64506063 5.05639443
Ga 180.84217484 36.77910674 0.37415762
Ga 180.85571793 0.57727042 22.55886805
Ga 180.79270545 1.84603735 30.10337144
Ga 180.84535207 2.43775948 15.35956645
Ga 181.02062046 1.21218819 7.74558531
Ga 178.90720184 0.18977243 32.55864235
Ga 178.84165648 0.90463075 17.43899682
Ga 178.98690391 2.10309748 24.95960881
Ga 179.10616908 36.41301827 10.23850143
Ga 179.07278708 1.54936045 2.58425591
Ga 177.94283721 1.50425635 36.45832684
Ga 177.83518665 2.24039644 21.63272588
Ga 177.89922082 0.37416146 29.26266646
Ga 178.03606897 0.95364629 14.10280657
Ga 178.04789066 36.59576988 6.55280507
Ga 185.52618867 0.26455313 30.84323476
Ga 185.52619135 0.87915431 15.93997696
Ga 185.52619327 2.10835106 23.39161127
Ga 185.52618843 2.72295539 8.48835116
Ga 185.52618825 1.49375538 1.03672438
Ga 185.55387356 1.68813900 33.58086269
Ga 185.55387805 2.30274035 18.67760518
Ga 185.55387218 0.45894100 26.12923991
Ga 185.55387088 1.07353850 11.22597848
Ga 185.55386983 36.72034289 3.77435091
Ga 183.72599460 0.05401729 35.94927768
Ga 183.72603123 0.66860570 21.04602007
Ga 183.72599211 1.89780881 28.49765018
Ga 183.72599292 2.51241158 13.59438474
Ga 183.72600453 1.28321154 6.14274666
Ga 182.65645914 0.19766951 32.46429689
Ga 182.65648521 0.81225371 17.56106968
Ga 182.65647044 2.04144435 25.01268068
Ga 182.65645947 2.65608960 10.10943593
Ga 182.65646082 1.42687372 2.65782200
Ga 190.22377488 0.12177837 34.30537905
Ga 190.22377541 0.73637819 19.40212112
Ga 190.22377497 1.96557814 26.85375097
Ga 190.22377466 2.58017824 11.95049245
Ga 190.22377479 1.35097822 4.49886360
Ga 190.25145909 1.54536382 37.04300566
Ga 190.25145959 2.15996358 22.13974768
Ga 190.25145801 0.31616393 29.59137612
Ga 190.25145836 0.93076380 14.68811826
Ga 190.25145831 2.77456369 7.23648941
Ga 188.42359823 1.75503304 31.95979208
Ga 188.42359914 2.36963318 17.05653436
Ga 188.42359954 0.52583282 24.50816382
Ga 188.42359837 1.14043301 9.60490561
Ga 188.42359918 36.78723355 2.15327752
Ga 187.35405251 0.05488619 35.92644912
Ga 187.35405314 0.66948470 21.02319170
Ga 187.35405099 1.89868436 28.47482202
Ga 187.35405167 2.51328564 13.57156278
Ga 187.35405003 1.28408526 6.11993361
Ga 194.92138045 1.82280287 30.31589410
Ga 194.92138046 2.43740287 15.41263613
Ga 194.92138049 0.59360286 22.86426511
Ga 194.92138046 1.20820287 7.96100714
Ga 194.92138049 36.85500288 0.50937817
Ga 194.94906262 0.17338785 33.05351364
Ga 194.94906263 0.78798786 18.15025567
Ga 194.94906262 2.01718785 25.60188466
Ga 194.94906261 2.63178786 10.69862668
Ga 194.94906259 1.40258786 3.24699770
Ga 193.12119201 1.61225760 35.42193264
Ga 193.12119198 2.22685759 20.51867465
Ga 193.12119173 0.38305759 27.97030367
Ga 193.12119183 0.99765759 13.06704569
Ga 193.12119186 2.84145756 5.61541672
Ga 192.05164249 1.75590913 31.93696242
Ga 192.05164274 2.37050921 17.03370448
Ga 192.05164265 0.52670914 24.48533367
Ga 192.05164258 1.14130916 9.58207559
Ga 192.05164270 36.78810927 2.13044672
Ga 199.61898691 1.68002630 33.77803544
Ga 199.61898691 2.29462630 18.87477747
Ga 199.61898691 0.45082630 26.32640645
Ga 199.61898691 1.06542630 11.42314848
Ga 199.61898691 2.90922630 3.97151950
Ga 199.64670624 0.03062704 36.51562939
Ga 199.64670624 0.64522704 21.61237142
Ga 199.64670624 1.87442704 29.06400040
Ga 199.64670624 2.48902704 14.16074244
Ga 199.64670624 1.25982704 6.70911345
Ga 197.81876642 0.24028235 31.43246026
Ga 197.81876642 0.85488235 16.52920229
Ga 197.81876642 2.08408235 23.98083127
Ga 197.81876642 2.69868235 9.07757330
Ga 197.81876642 1.46948235 1.62594432
Ga 196.74922407 1.61313037 35.39910457
Ga 196.74922407 2.22773037 20.49584660
Ga 196.74922407 0.38393037 27.94747558
Ga 196.74922407 0.99853037 13.04421762
Ga 196.74922407 2.84233037 5.59258863
Si 14.52099308 0.00000004 37.25814411
Si 14.52099279 1.53650022 2.66129612
Si 14.52099211 0.00000001 5.32259251
Si 14.52099328 1.53650002 7.98388749
Si 14.52099276 0.00000008 10.64518373
Si 14.52099061 1.53649969 13.30648067
Si 14.52099182 0.00000022 15.96777774
Si 14.52099310 1.53649975 18.62907300
Si 14.52099325 0.00000017 21.29036868
Si 14.52099301 1.53649968 23.95166468
Si 14.52099249 0.00000020 26.61296080
Si 14.52099340 1.53650067 29.27425824
Si 14.52099393 0.00000035 31.93555379
Si 14.52099574 1.53649979 34.59684889
Si 9.49447743 0.00000016 37.25814465
Si 9.49447743 1.53650016 2.66129574
Si 9.49447741 0.00000016 5.32259175
Si 9.49447740 1.53650016 7.98388777
Si 9.49447740 0.00000016 10.64518413
Si 9.49447738 1.53650016 13.30648015
Si 9.49447738 0.00000016 15.96777619
Si 9.49447742 1.53650016 18.62907220
Si 9.49447742 0.00000016 21.29036820
Si 9.49447741 1.53650016 23.95166420
Si 9.49447743 0.00000016 26.61296023
Si 9.49447743 1.53650016 29.27425662
Si 9.49447741 0.00000017 31.93555263
Si 9.49447745 1.53650016 34.59684863
Si 12.00775004 1.53644909 0.88718673
Si 12.00775025 3.07294908 3.54848331
Si 12.00775018 1.53644902 6.20977941
Si 12.00774987 3.07294902 8.87107522
Si 12.00774956 1.53644888 11.53237120
Si 12.00774953 3.07294891 14.19366745
Si 12.00774997 1.53644899 16.85496359
Si 12.00775023 3.07294895 19.51625950
Si 12.00775001 1.53644896 22.17755563
Si 12.00775002 3.07294885 24.83885174
Si 12.00775008 1.53644900 27.50014787
Si 12.00775033 3.07294896 30.16144391
Si 12.00775050 1.53644894 32.82273993
Si 12.00775038 3.07294898 35.48403581
Si 6.98087576 0.00005109 1.77410903
Si 6.98087576 1.53655109 4.43540504
Si 6.98087576 0.00005109 7.09670106
Si 6.98087576 1.53655109 9.75799707
Si 6.98087576 0.00005109 12.41929309
Si 6.98087576 1.53655109 15.08058910
Si 6.98087576 0.00005109 17.74188549
Si 6.98087576 1.53655109 20.40318149
Si 6.98087576 0.00005109 23.06447750
Si 6.98087576 1.53655109 25.72577352
Si 6.98087576 0.00005109 28.38706954
Si 6.98087577 1.53655109 31.04836555
Si 6.98087576 0.00005109 33.70966156
Si 6.98087576 1.53655109 36.37095794
Si 24.56296706 36.75510462 0.06740770
Si 24.63937778 1.51600715 2.67532193
Si 24.60890963 0.01788731 5.39316186
Si 24.56189284 1.49049180 8.06885987
Si 24.47145973 0.03200917 10.69902755
Si 24.51821279 1.48756334 13.38979226
Si 24.51799050 36.85766687 16.03070560
Si 24.57906118 1.51935145 18.64591199
Si 24.56243174 36.77020970 21.37473508
Si 24.50859321 1.45529263 24.04858072
Si 24.64239924 36.81106259 26.57332238
Si 24.57560067 1.56985422 29.31343779
Si 24.58294631 36.81130601 31.86323931
Si 24.54996804 1.56736914 34.54660185
Si 19.54747565 0.00003032 37.25812610
Si 19.54748969 1.53652763 2.66128875
Si 19.54748438 0.00001247 5.32259388
Si 19.54748747 1.53653124 7.98388150
Si 19.54751543 36.87598526 10.64519299
Si 19.54741902 1.53650835 13.30648436
Si 19.54745943 36.87598851 15.96779795
Si 19.54747056 1.53650450 18.62909804
Si 19.54750028 0.00000984 21.29035963
Si 19.54752691 1.53649674 23.95166715
Si 19.54746124 0.00001145 26.61296806
Si 19.54749218 1.53649539 29.27424928
Si 19.54754690 36.87598416 31.93555883
Si 19.54751282 1.53649868 34.59684997
Si 22.12384189 1.45783844 0.93109832
Si 22.13212027 3.05078084 3.48929916
Si 22.07057063 1.54883943 6.20631129
Si 22.09286983 3.03598586 8.87015019
Si 21.99621993 1.59027505 11.60201152
Si 22.06417084 3.02056025 14.18347491
Si 22.03967936 1.54563050 16.90250667
Si 22.10477834 3.03108954 19.54443141
Si 22.08692712 1.53586248 22.23278274
Si 22.05454690 3.10023053 24.83165178
Si 22.12059477 1.47771160 27.50844887
Si 22.02966461 3.16650940 30.16624160
Si 22.05340101 1.58404062 32.82785646
Si 22.08565576 3.04450629 35.44550915
Si 17.03423960 0.00005392 1.77410624
Si 17.03424672 1.53655429 4.43540530
Si 17.03424302 0.00004938 7.09670310
Si 17.03424820 1.53655142 9.75799376
Si 17.03424050 0.00005303 12.41929369
Si 17.03423588 1.53654977 15.08058932
Si 17.03424165 0.00005291 17.74188918
Si 17.03424767 1.53655285 20.40318286
Si 17.03424977 0.00005086 23.06447590
Si 17.03425252 1.53654786 25.72577555
Si 17.03424989 0.00005229 28.38706853
Si 17.03424965 1.53655110 31.04836707
Si 17.03425504 0.00005150 33.70966449
Si 17.03425457 1.53655165 36.37095198
Si 34.70250249 36.84484244 0.00164831
Si 34.65408146 1.63555460 2.72063142
Si 34.57582940 0.03246677 5.38568936
Si 34.62444623 1.66235020 7.91953273
Si 34.56447757 0.02103707 10.57908735
Si 34.74734699 1.50184202 13.32753282
Si 34.69960519 0.00683865 16.05046739
Si 34.70141600 1.57220545 18.73646179
Si 34.60908140 0.01292896 21.49780635
Si 34.60886551 1.57071025 23.98890627
Si 34.53241695 0.03699175 26.61971114
Si 34.53076112 1.45186304 29.32109833
Si 34.62017996 0.04774756 32.06813861
Si 34.78735888 1.56956784 34.64549415
Si 29.67707272 36.85585365 0.02642139
Si 29.52545381 1.53184649 2.76796356
Si 29.59390949 36.87257277 5.38292958
Si 29.56890498 1.55276576 7.98916265
Si 29.51875706 36.80661053 10.63964068
Si 29.64119774 1.54553209 13.34229460
Si 29.67171655 0.00112326 16.04387061
Si 29.53557609 1.56397324 18.73094368
Si 29.57964274 36.86287652 21.37251842
Si 29.53549155 1.36788410 24.01631543
Si 29.59824199 36.73494236 26.82677245
Si 29.59548152 1.62196752 29.44360416
Si 29.70146553 36.85463450 31.99314311
Si 29.58702592 1.49721265 34.58137038
Si 32.05748701 1.46114421 0.93596069
Si 32.04334518 3.08751203 3.62665483
Si 32.06626354 1.54999490 6.27327618
Si 32.13077617 2.99711322 8.89946173
Si 32.05551631 1.49362360 11.54954115
Si 32.14018967 2.97568231 14.19643943
Si 32.10304205 1.56692157 16.96950497
Si 32.13991523 3.10475772 19.59470682
Si 32.03214113 1.54477174 22.25985474
Si 32.15026902 3.09184005 24.90753761
Si 32.07499234 1.53682366 27.52816876
Si 32.10542803 3.08173802 30.22246997
Si 32.26479823 1.44082004 32.94124677
Si 32.21786304 3.15616245 35.49840834
Si 27.14109594 36.75020608 1.79650087
Si 26.98739172 1.54167765 4.52365374
Si 27.11537326 0.01916318 7.16909000
Si 27.05370121 1.56480880 9.84074114
Si 27.21715462 0.01682478 12.48663561
Si 27.10051994 1.43504743 15.10812698
Si 27.16936445 0.00496849 17.92142801
Si 27.02097661 1.51987252 20.55637069
Si 27.00552757 36.72190278 23.12038417
Si 27.07994814 1.49624213 25.87501708
Si 27.12853026 36.86779192 28.50425650
Si 27.04033377 1.47322703 31.14651279
Si 27.14553639 36.85796649 33.71329221
Si 27.19374201 1.58419810 36.41845177
Si 44.62302995 36.84129178 0.09398012
Si 44.59225820 1.54572432 2.82704970
Si 44.56443287 36.80495272 5.48152570
Si 44.54034004 1.56197289 8.14371035
Si 44.73525943 0.01473199 10.66552422
Si 44.59330604 1.46877341 13.35619599
Si 44.63946998 0.02303429 16.01683326
Si 44.60366793 1.59216110 18.73683364
Si 44.71268155 36.83105145 21.37838829
Si 44.76288376 1.44640233 24.01632823
Si 44.60679112 0.08680081 26.66344461
Si 44.59781419 1.60503224 29.38314777
Si 44.64472993 36.81621939 31.97190664
Si 44.61029187 1.71423138 34.74685071
Si 39.70051990 0.11150168 0.13120324
Si 39.57015808 1.72588507 2.65948766
Si 39.57012917 0.01660148 5.28456890
Si 39.54489048 1.49250390 8.03089953
Si 39.67817409 0.04314867 10.65749404
Si 39.66218315 1.53783038 13.37121595
Si 39.62957703 0.10223785 16.01787346
Si 39.75414054 1.61583773 18.69303615
Si 39.71324232 0.03871560 21.45705321
Si 39.66856777 1.57208300 24.04919930
Si 39.69037536 36.77310255 26.54169779
Si 39.66390349 1.55907210 29.39920741
Si 39.52659066 0.01589259 31.97197176
Si 39.61551351 1.45370657 34.68757508
Si 42.10144192 1.60566079 0.89504320
Si 42.08026445 3.14021756 3.52471457
Si 42.08670432 1.61033956 6.31570976
Si 42.06765452 3.08111613 8.95245841
Si 42.21474839 1.61113189 11.66081514
Si 42.19308139 2.97827044 14.25944265
Si 42.13273789 1.50545915 16.90602134
Si 42.26987258 3.10371968 19.60892641
Si 42.15749142 1.55920028 22.35296181
Si 42.25345518 3.09833952 24.93550805
Si 42.10159022 1.50913218 27.56479078
Si 42.12718662 3.01050972 30.31234177
Si 42.05433493 1.53742454 32.93816312
Si 41.93045528 3.19783308 35.58794273
Si 37.09936586 36.86077083 1.90159519
Si 37.11824878 1.60880615 4.44861136
Si 37.19645791 0.04147191 7.07881653
Si 37.11257080 1.56943036 9.84081872
Si 37.16790715 36.86217193 12.42955931
Si 37.26400771 1.54504350 15.09708258
Si 37.17561594 0.07459385 17.87677579
Si 37.24854026 1.54392912 20.51710160
Si 37.24388998 0.06938077 23.08739112
Si 37.15608247 1.61281687 25.80473891
Si 37.11706950 36.82919743 28.43901429
Si 37.11486039 1.59428830 31.13752611
Si 37.19708849 36.80635206 33.86312749
Si 37.16560870 1.54043622 36.44208373
Si 54.75730690 0.11387329 0.10477040
Si 54.64726119 1.57780369 2.82944269
Si 54.59513374 0.04567803 5.45884406
Si 54.64301581 1.50136155 8.11297754
Si 54.68732757 0.02101689 10.84225320
Si 54.69477457 1.53081212 13.47608948
Si 54.53858458 0.02810219 16.09854065
Si 54.82517686 1.57206870 18.74123653
Si 54.70099149 0.02883549 21.51806087
Si 54.68779032 1.65662879 24.09784675
Si 54.64713308 36.86480351 26.64754620
Si 54.63796091 1.54317435 29.30767272
Si 54.55717508 0.07613498 31.99792028
Si 54.70820446 1.70707381 34.70583700
Si 49.65980606 36.79861504 0.17704082
Si 49.63479973 1.55436503 2.66509751
Si 49.68100843 36.83723348 5.46334852
Si 49.66735617 1.62022741 8.13002289
Si 49.71350622 36.83282079 10.71513897
Si 49.66568552 1.58774811 13.36613075
Si 49.53245936 0.00016967 16.09115229
Si 49.67112247 1.60350140 18.74196857
Si 49.57308685 0.02320067 21.32420886
Si 49.78490518 1.46610560 24.13619719
Si 49.73498170 0.05323541 26.69160881
Si 49.62289085 1.57459578 29.35787390
Si 49.65414029 0.03140604 32.05664329
Si 49.51667335 1.59504034 34.65837568
Si 52.19657776 1.56293696 0.98321293
Si 52.05643997 3.12933248 3.74142461
Si 52.08781896 1.52673788 6.23668871
Si 52.15514825 3.21034971 8.95558710
Si 52.17431070 1.54663070 11.63897789
Si 52.18255856 3.00814270 14.35762628
Si 52.14586751 1.56089130 16.99177646
Si 52.22800260 3.08108912 19.64456569
Si 52.13362809 1.64433848 22.34269935
Si 52.19263262 3.08405509 24.94953625
Si 52.19337499 1.62326031 27.65956039
Si 52.21518073 3.15408471 30.27754959
Si 52.13488906 1.67454060 32.87923550
Si 52.13898577 3.05628753 35.56402543
Si 47.14555498 0.00070764 2.00225936
Si 47.11445116 1.60332811 4.60987336
Si 47.30752924 36.79311561 7.16741283
Si 47.21380334 1.58028404 9.86378102
Si 47.19321881 36.87099030 12.50572741
Si 47.14479386 1.53178276 15.16262010
Si 47.21245988 0.10858681 17.77668124
Si 47.18284639 1.44199072 20.54160927
Si 47.22559521 0.09535797 23.10474636
Si 47.18653860 1.43049872 25.73602768
Si 47.17953273 0.07785366 28.51138876
Si 47.25843272 1.57703792 31.15465256
Si 47.08155558 0.02465403 33.75308116
Si 47.06951613 1.59703817 36.45598777
Si 64.74536923 0.00002270 0.15685705
Si 64.67186375 1.60660736 2.80750673
Si 64.73143570 0.04757908 5.35631986
Si 64.84370397 1.60893830 8.09779556
Si 64.81436162 0.08324465 10.81968005
Si 64.76825654 1.53718885 13.51765572
Si 64.84430465 0.00188754 16.14872363
Si 64.76704309 1.53254459 18.80300476
Si 64.76950324 0.10007834 21.40307188
Si 64.72989653 1.60405418 23.95905456
Si 64.62630205 36.80002807 26.81296866
Si 64.78326883 1.48853040 29.35271103
Si 64.68794540 0.06804172 32.07800305
Si 64.65538091 1.56454851 34.83041396
Si 59.67448207 0.02536581 0.26850795
Si 59.74932024 1.65776867 2.74428658
Si 59.72024261 0.15700835 5.47239967
Si 59.67565396 1.55726751 7.99285760
Si 59.73531902 0.06246157 10.74610500
Si 59.81029153 1.55332017 13.44976545
Si 59.81863335 36.80659823 16.09724521
Si 59.69683509 1.52657486 18.83968877
Si 59.77842553 36.85063061 21.48796944
Si 59.76173643 1.51799581 24.01643690
Si 59.64548400 36.81644440 26.73992333
Si 59.65985907 1.57870194 29.47961473
Si 59.63404318 0.10020172 32.14027421
Si 59.68072138 1.63525445 34.81213008
Si 62.18262276 1.73501736 1.09389745
Si 62.24816259 3.27567171 3.58706437
Si 62.25457607 1.67688101 6.14461191
Si 62.21839706 3.16064712 8.87277217
Si 62.31241704 1.47490182 11.55933702
Si 62.21458190 3.10160455 14.39051865
Si 62.22888197 1.63837700 17.06981173
Si 62.26634418 3.07404445 19.75388999
Si 62.24267230 1.49108120 22.23569875
Si 62.25263178 3.12294054 24.92404229
Si 62.22039399 1.50723433 27.71417201
Si 62.14505993 3.13718232 30.33587792
Si 62.04893319 1.50879605 33.01625039
Si 62.18570434 3.08911553 35.61496900
Si 57.12149373 0.08338162 1.93030121
Si 57.07131355 1.58413303 4.59381642
Si 57.25066005 36.85631776 7.29828662
Si 57.16266652 1.47407602 9.85007978
Si 57.24610082 0.07217016 12.55795431
Si 57.18986480 1.60795123 15.15348505
Si 57.18159834 0.01651423 17.73610592
Si 57.24094743 1.54913992 20.54254187
Si 57.35013486 0.04924368 23.18439008
Si 57.11824379 1.57682471 25.83463416
Si 57.17201763 0.10943267 28.54267465
Si 57.18541668 1.65044179 31.19270525
Si 57.08824773 0.17444705 33.93151800
Si 57.21751841 1.60268969 36.62833517
Si 74.77966051 0.01623133 0.13167812
Si 74.80300574 1.57633875 2.85920553
Si 74.88568494 0.01622327 5.50209080
Si 74.73909564 1.51078788 8.14488091
Si 74.82267258 0.10310430 10.85470394
Si 74.69339159 1.53051555 13.37548220
Si 74.77981353 36.85503551 16.08416850
Si 74.82702752 1.55162110 18.87370806
Si 74.90259992 0.13214343 21.52195924
Si 74.84086014 1.66505299 24.14225388
Si 74.87962030 0.14817128 26.69432924
Si 74.84798509 1.61727285 29.39458499
Si 74.86162423 0.05512036 32.08347251
Si 74.77501915 1.63198915 34.71028616
Si 69.67536388 0.02031618 0.10990779
Si 69.73252816 1.44388919 2.77891505
Si 69.77143024 0.04823380 5.41753742
Si 69.73833636 1.56913367 8.10657832
Si 69.62797081 0.01637537 10.79587339
Si 69.72970586 1.58227060 13.41823738
Si 69.65507241 0.07538327 16.10657527
Si 69.72435384 1.60099316 18.82190578
Si 69.85793299 0.02041537 21.38281739
Si 69.86202359 1.52176411 24.10716736
Si 69.78397979 0.13238065 26.69522358
Si 69.77111846 1.59498173 29.41495506
Si 69.73973996 0.01979307 32.11045702
Si 69.84152054 1.56188585 34.64945596
Si 72.26849465 1.68902512 0.94905910
Si 72.22848546 3.03822218 3.72146033
Si 72.23123096 1.51772936 6.39134449
Si 72.24408340 3.19064882 9.03996336
Si 72.26428948 1.59583181 11.69036184
Si 72.26662706 3.08610788 14.38056706