
***************************************************************
*                 Welcome to use GPUMD                        *
*     (Graphics Processing Units Molecular Dynamics)          *
*                     version 4.4                             *
*              This is the gpumd executable                   *
***************************************************************


---------------------------------------------------------------
Compiling options:
---------------------------------------------------------------

DEBUG is off: Use different PRNG seeds for different runs.

---------------------------------------------------------------
GPU information:
---------------------------------------------------------------

number of GPUs = 1
Device id:                   0
    Device name:             NVIDIA H100 NVL
    Compute capability:      9.0
    Amount of global memory: 93.1221 GB
    Number of SMs:           132

---------------------------------------------------------------
Started running GPUMD.
---------------------------------------------------------------


---------------------------------------------------------------
Started initializing positions and related parameters.
---------------------------------------------------------------

Number of atoms is 10240.
Use periodic boundary conditions along x.
Use periodic boundary conditions along y.
Use periodic boundary conditions along z.
Box matrix h = [a, b, c] is
    4.9211106395e+01   -2.4605553197e+01    0.0000000000e+00
   -5.1544210923e-15    4.2618068286e+01    0.0000000000e+00
    0.0000000000e+00    0.0000000000e+00    5.0353232400e+01
Inverse box matrix g = inv(h) is
    2.0320616081e-02    1.1732113164e-02   -0.0000000000e+00
    2.4576668148e-18    2.3464226330e-02   -0.0000000000e+00
   -0.0000000000e+00   -0.0000000000e+00    1.9859698223e-02
Do not specify initial velocities here.
Have no grouping method.
There are 5 atom types.
    0 atoms of type 0.
    0 atoms of type 1.
    5120 atoms of type 2.
    5120 atoms of type 3.
    0 atoms of type 4.
Initialized velocities with default T = 300 K.

---------------------------------------------------------------
Finished initializing positions and related parameters.
---------------------------------------------------------------


---------------------------------------------------------------
Started executing the commands in run.in.
---------------------------------------------------------------

Use the NEP4 potential with 5 atom types.
    type 0 (Ga with Z = 31).
    type 1 (O with Z = 8).
    type 2 (Si with Z = 14).
    type 3 (C with Z = 6).
    type 4 (H with Z = 1).
    radial cutoff = 9 A.
    angular cutoff = 6 A.
    MN_radial = 338.
    enlarged MN_radial = 423.
    enlarged MN_angular = 129.
    n_max_radial = 10.
    n_max_angular = 8.
    basis_size_radial = 12.
    basis_size_angular = 10.
    l_max_3body = 4.
    l_max_4body = 2.
    l_max_5body = 0.
    ANN = 56-96-1.
    number of neural network parameters = 27841.
    number of descriptor parameters = 6050.
    total number of parameters = 33891.
Initialized velocities with input T = 300 K.
Use NPT ensemble for this run.
    choose the Berendsen method.
    initial temperature is 300 K.
    final temperature is 300 K.
    tau_T is 100 time_step
    pressure_xx is 0 GPa.
    pressure_yy is 0 GPa.
    pressure_zz is 0 GPa.
    pressure_yz is 0 GPa.
    pressure_xz is 0 GPa.
    pressure_xy is 0 GPa.
    modulus_xx is 500 GPa.
    modulus_yy is 500 GPa.
    modulus_zz is 500 GPa.
    modulus_yz is 50 GPa.
    modulus_xz is 50 GPa.
    modulus_xy is 50 GPa.
    tau_p is 1000 time_step.
Time step for this run is 1 fs.
Dump thermo every 1000 steps.
Run 1000000 steps.
    100000 steps completed.
    200000 steps completed.
    300000 steps completed.
    400000 steps completed.
    500000 steps completed.
    600000 steps completed.
    700000 steps completed.
    800000 steps completed.
    900000 steps completed.
    1000000 steps completed.

---------------------------------------------------------------
Time used for this run = 7489.03 second.
Speed of this run = 1.36733e+06 atom*step/second.
---------------------------------------------------------------

Use NVT ensemble for this run.
    choose the Nose-Hoover chain method.
    initial temperature is 300 K.
    final temperature is 300 K.
    tau_T is 100 time_step.
Compute thermal conductivity using the HNEMD method.
    output_interval = 1000
    fe_x = 0 /A
    fe_y = 0 /A
    fe_z = 2e-05 /A
Compute SHC.
    sampling interval for SHC is 2.
    number of correlation data is 250.
    transport direction is z.
    num_omega for SHC is 1000.
    max_omega for SHC is 200.
Dump thermo every 1000 steps.
Run 5000000 steps.
    500000 steps completed.
    1000000 steps completed.
    1500000 steps completed.
    2000000 steps completed.
    2500000 steps completed.
    3000000 steps completed.
    3500000 steps completed.
    4000000 steps completed.
    4500000 steps completed.
    5000000 steps completed.

---------------------------------------------------------------
Time used for this run = 37895.8 second.
Speed of this run = 1.35107e+06 atom*step/second.
---------------------------------------------------------------


---------------------------------------------------------------
Finished executing the commands in run.in.
---------------------------------------------------------------


---------------------------------------------------------------
Time used = 45384.877393 s.
---------------------------------------------------------------


---------------------------------------------------------------
Finished running GPUMD.
---------------------------------------------------------------

