 -1.3334745e+00   3.1143909e-03
 -9.4718051e-01   4.6095309e-05
 -5.4544940e+00   5.7468354e-04
  4.5676720e-01   6.3387793e-04
 -4.8172159e+00   5.5355037e-04
 -7.9881006e-01   1.7531343e-03
 -1.3875039e-01   1.1992512e-03
 -5.1508176e-01   1.3917525e-03
 -2.1868508e+00   3.9925170e-04
  1.9600419e+00   4.2632710e-05
 -3.2369790e+00   3.9353227e-04
  5.4423165e-01   3.2148948e-03
 -1.8054983e-02   1.4459638e-02
  3.1638595e-01   1.5579908e-02
 -1.5785956e-01   9.4097015e-03
 -8.1875736e-01   2.0460435e-03
 -8.2443815e-01   1.2399851e-02
 -1.4532049e+00   8.0954544e-02
 -2.3257544e+00   1.4413065e-04
  1.2761984e+00   1.4845267e-04
 -9.9048591e-01   4.5908480e-03
  1.0209640e+00   7.7926350e-04
  6.7800127e-02   2.5197660e-04
 -4.8117584e-01   3.9356462e-05
 -1.0078132e+00   8.7926082e-07
  1.0372872e+00   2.9557785e-02
  1.4342287e+00   9.8820385e-03
  4.7863546e-01   1.3041418e-04
  1.0973942e+00   5.2077841e-02
 -1.3694304e-01   5.1974181e-05
 -5.9737557e-01   4.1392334e-02
  1.0738075e+00   1.1610101e-04
 -1.7703471e-01   3.9462997e-03
  1.6409959e+00   1.6582164e-04
 -1.0155948e+00   4.2788289e-03
 -3.2725081e-01   5.5277301e-03
 -1.6823778e+00   2.1686298e-03
 -3.5597213e-02   1.6476244e-03
  1.0471857e-01   7.7702723e-02
  7.7167273e-02   4.4434048e-02
  2.0929702e-01   2.4664544e-02
 -3.3137289e-01   9.1498224e-03
 -6.3478482e-01   1.7556626e-02
  1.9302811e-02   3.6979681e-03
  2.4346871e+00   2.6315680e-05
 -2.4406784e+00   2.3911002e-03
 -8.8624215e-01   6.5332935e-03
  2.5339544e+00   2.2376709e-02
 -2.2729084e+00   8.7562221e-05
  8.0168890e-03   3.0042939e-03
 -7.0584434e-01   1.6465191e-03
  1.0906348e+00   6.3703746e-02
 -6.5550148e-01   7.9659916e-02
 -5.9736390e+00   2.8342162e-03
 -1.6528231e+00   2.6099568e-05
 -6.8945208e+00   1.4618988e-04
 -4.3878159e-01   2.2402512e-04
  1.1846771e+00   4.8728613e-03
 -3.0044269e-02   7.2788042e-03
  1.4963193e+00   1.8322127e-05
 -2.5389304e+00   6.4537176e-03
 -1.9280079e-01   1.2734382e-03
 -4.5379310e+00   7.7002379e-03
  2.8980262e+00   1.4898313e-04
 -4.1002864e-01   1.0211217e-02
 -1.1652111e+00   2.1564511e-03
 -2.2139654e+00   2.1274029e-03
 -1.6713314e+00   5.3215816e-05
  3.0016109e-01   4.7542335e-06
 -2.0782628e+00   1.1716849e-04
 -3.8556848e+00   5.9255627e-03
  5.5133729e+00   3.4337509e-02
 -1.0270826e+00   8.5664950e-03
  5.8172956e+00   1.2454072e-04
  3.9225502e+00   6.0189553e-03
 -1.7846605e+00   3.5727874e-04
 -3.4922367e-01   1.9915744e-06
  2.0461605e-01   8.6016016e-04
 -6.2813439e+00   2.0731712e-02
 -1.5935239e+00   4.6567267e-04
  4.3538439e-01   1.0574599e-03
 -1.3111702e+00   5.1806722e-02
  6.5234768e-01   1.1453651e-02
  1.6400005e+00   2.8279840e-04
 -7.3464620e-01   2.9310281e-03
 -1.4157857e+00   1.6369922e-03
 -2.3199914e+00   6.5772295e-02
 -4.9401674e+00   2.5207326e-03
 -1.1216469e-01   5.3973589e-04
  1.6245670e+00   6.6651299e-04
  3.0372971e-01   7.5395517e-03
 -5.5104547e+00   1.9430690e-03
  2.1816681e-01   3.1452205e-02
  6.9832891e-02   1.0204710e-02
  1.8678612e+00   8.7527890e-04
 -7.9930168e-01   1.9234948e-02
 -3.4283121e+00   5.4438994e-03
  1.9304801e+00   3.4240987e-03
 -1.2830817e+00   1.6859753e-02
 -2.9377878e-01   1.3888682e-05
 -5.5683079e+00   1.7917405e-03
 -4.0953650e+00   1.0471569e-02
  3.2302506e-02   7.7594556e-02
  4.2430344e-01   3.2594180e-04
  2.8378632e+00   2.8052045e-02
 -7.1409988e-01   1.8424606e-02
 -3.8647425e-01   3.5312449e-04
 -1.5184507e+00   1.9937556e-02
  1.9475594e+00   3.1915442e-05
 -5.2068185e-02   8.3154580e-03
 -4.2265078e-01   2.3659715e-02
 -1.0608910e+00   6.9882579e-02
  1.4902854e-01   1.6270354e-03
  4.1231525e-01   5.6283989e-05
 -7.5466764e-01   7.5012324e-03
  3.0076308e+00   2.2676844e-02
  3.2953066e-01   6.5603167e-02
  4.7895052e-02   8.1682608e-02
  2.4906114e-01   7.6148110e-03
 -6.2110551e-02   2.9381884e-02
  4.5457253e+00   8.2811797e-03
  1.6640557e-01   1.3440644e-04
  2.7716833e-01   2.6992718e-03
  9.4480209e-02   5.5839430e-04
 -1.7015173e-01   5.2888837e-04
  4.1584511e+00   7.6611323e-06
  1.1535332e-01   1.4821954e-02
  8.3106285e-01   4.3064831e-03
  8.3957100e-01   3.7443810e-04
  3.1789458e-01   3.4289688e-02
 -2.0280089e+00   1.4643841e-04
  1.3795510e-01   6.1028344e-03
 -1.9449811e+00   7.9755820e-03
  4.0914097e+00   9.0689100e-03
 -2.6903532e-03   1.8644672e-02
 -6.5217865e-01   2.9678748e-04
  6.0338444e-01   2.7373886e-02
  9.2982954e-01   9.1483695e-03
  6.1427039e-01   1.9963566e-02
 -1.7208685e+00   9.6224332e-03
 -9.6647108e-01   4.5505717e-02
 -4.5754933e-01   5.0764166e-02
 -1.8975455e-02   5.7272264e-04
  4.4110946e-02   6.9935270e-02
 -8.2202415e+00   2.3765398e-04
  1.1911379e+00   8.2496040e-02
  7.7845583e+00   6.6697168e-05
 -2.0585024e-01   1.2307251e-02
  2.1899152e+00   4.3856501e-04
  8.3599836e-02   4.9880035e-03
 -8.8672453e-01   1.6474856e-02
 -2.5388792e+00   3.2745692e-04
 -1.5062618e-01   2.3246538e-02
 -4.6843740e-01   4.6273332e-02
 -1.2461425e-01   1.4459441e-02
 -1.5758595e-01   3.1551268e-02
 -1.1608578e-01   7.7808648e-04
 -1.3930932e+00   4.0204036e-03
 -1.3478713e-01   9.8674856e-03
 -4.9942303e+00   2.6789994e-04
  5.9610456e-01   8.2389303e-02
  2.1244825e-01   3.6566739e-04
 -5.5681014e-01   2.3272965e-02
 -2.7241012e-02   1.0431840e-03
 -1.6313933e-01   3.4252487e-02
  1.8619657e-01   4.5658839e-03
 -7.0216858e-01   9.4201867e-05
  3.4587589e-01   1.0171484e-02
 -9.7315702e+00   3.9707572e-04
  2.0321817e+00   1.1256398e-04
 -7.0956979e+00   3.5824726e-04
  5.5675989e-01   5.8490899e-05
  5.3244143e+00   4.5984657e-03
 -2.4449861e+00   1.2215656e-04
  4.5879865e+00   1.2227298e-04
 -4.3421845e+00   5.9553341e-04
 -5.7959719e+00   1.2594648e-04
 -4.8546457e+00   2.8561923e-04
  1.0589632e+00   5.2888354e-04
 -4.1354642e+00   9.6755492e-04
  2.6352150e+00   1.3772972e-04
  5.2672602e-02   3.5529705e-05
  4.3743534e+00   2.3920417e-02
 -2.6888263e-01   3.1680293e-02
  2.4288641e-01   8.7671369e-02
 -1.5658293e+00   2.1771882e-02
  1.8820729e+00   2.1558523e-03
  3.4312341e-01   5.8449980e-02
  4.5633879e-03   1.0970675e-02
  3.6032233e-01   6.7531653e-02
 -6.5806258e-01   7.3030214e-06
  2.8736132e-01   6.1722090e-03
 -6.0872736e+00   6.3972911e-03
  7.6608664e-01   1.0921577e-03
  1.7431570e-02   1.0610385e-02
  3.4906020e+00   7.7558402e-03
 -5.2460134e-01   9.5338497e-04
  2.1681323e+00   1.0167969e-02
 -2.4320490e+00   8.0125919e-04
  2.2947249e+00   6.5792063e-03
 -1.5551819e+00   1.8257009e-03
 -1.0480603e+01   1.4141937e-03
 -4.7273273e+00   1.7797661e-03
  5.8071952e+00   7.5502894e-03
  6.6709657e+00   2.2929307e-02
  1.0142691e-01   1.2495491e-02
 -1.0366780e-01   1.1186234e-02
  2.9462485e+00   6.8309382e-05
  1.0538361e+00   4.7332440e-05
 -1.0681705e+00   2.6470730e-03
 -9.0366685e-01   1.1593426e-03
  2.2093568e+00   5.1280167e-06
  3.5800200e+00   4.8171601e-04
  4.5945382e-01   2.7754512e-02
  4.5962868e+00   3.2254339e-03
  1.8841930e-01   6.0724281e-03
  1.8014359e+00   1.4846120e-04
 -7.9844952e-02   3.2869570e-02
  1.0744381e-01   1.5149927e-03
  1.3764795e+00   1.7573996e-04
 -8.1997800e-01   1.6760260e-02
 -1.4304901e+00   1.9678494e-03
  2.9129401e-01   3.0673059e-02
 -3.0637664e-01   4.6448547e-02
 -4.3482874e-02   1.4013377e-03
 -7.5571501e-01   3.1434592e-02
  2.8774028e+00   2.6167121e-03
 -5.5089469e+00   5.3441823e-03
  6.6898704e-01   2.8285219e-03
  1.0277627e-01   9.2681994e-06
 -6.1128569e+00   2.4487104e-03
 -8.1531924e-01   1.5924029e-02
 -1.9464849e-01   4.7834008e-04
 -1.3570663e+00   4.3117313e-04
 -3.8247740e-01   3.6732119e-02
 -1.0663505e+00   1.9616278e-02
 -2.3101099e-01   7.3499545e-02
 -1.2860047e+01   1.6064201e-02
 -1.6351141e+00   6.5147341e-04
  6.5448636e-01   9.6262251e-05
  2.4269357e-01   5.0082244e-03
 -5.2642655e-01   6.0485031e-02
  3.7160048e+00   6.4649468e-04
 -1.1067414e+00   1.2072304e-04
 -4.7894928e-01   3.3765231e-04
  1.7935050e-01   1.9853872e-03
 -1.6245784e+00   1.3936008e-05
  5.7997406e-01   2.0033926e-04
 -1.7086326e-01   4.0143905e-03
  2.3340824e+00   8.6411781e-04
  2.2418132e+00   6.0723441e-06
  1.7970346e-01   2.3596553e-02
  2.8008762e-01   1.3622236e-04
  7.4593258e-01   4.4877026e-05
  6.2975746e-01   1.2198500e-02
  1.1788863e+00   6.7043519e-03
  2.0532351e+00   1.4059170e-03
  7.8533059e-01   1.9405110e-04
  4.9978137e+00   4.3500465e-04
  3.0236405e-01   3.9213691e-02
  1.0750840e-01   1.8634334e-02
 -9.6622963e+00   1.4082170e-03
 -3.4504294e+00   2.8962123e-03
  2.7408987e-01   1.2614112e-02
  9.6470988e-01   3.5828400e-02
  1.9255992e+00   1.3512988e-03
 -3.4598801e+00   1.1468723e-03
  9.9065959e-02   7.5608343e-03
 -2.2519066e+00   7.3310402e-03
  1.8976778e-01   6.3998029e-02
 -3.0086127e-01   1.1838724e-02
 -4.9437184e+00   5.0964591e-04
 -2.6057988e-01   7.9473825e-03
  2.7803062e-02   1.7803411e-04
  7.4492526e-01   6.4242110e-02
 -6.2151155e+00   1.7503388e-03
 -1.1281422e+00   4.7255398e-05
 -4.8031339e-01   5.2455347e-03
 -7.2436328e+00   4.0925546e-03
  5.6982309e-01   4.5440760e-02
  4.8829812e-01   8.7894890e-03
  6.9437784e-01   8.1129419e-03
 -3.6727517e+00   3.0170691e-03
 -7.2058880e-01   1.1021312e-03
 -1.5887107e+00   8.5563961e-06
 -2.4273248e+00   5.4181428e-03
 -2.2371066e+00   1.3955477e-05
 -1.5066389e+00   1.4225534e-03
  1.0154769e+00   1.8133372e-02
 -6.6181570e-01   1.2161720e-02
 -1.0331994e+00   2.2670619e-02
  3.1873095e+00   8.1602996e-03
  6.3162029e-02   2.9009585e-03
 -1.8391027e-01   1.5516656e-02
  4.4516408e-01   5.9944307e-03
  1.1996948e-01   1.8360065e-02
  3.8057643e-01   4.5733987e-03
  2.6073828e-01   3.1308637e-03
 -1.8993074e+00   3.7861647e-04
 -8.3062720e-01   9.4472833e-02
 -2.5605413e-01   7.1236393e-03
  3.8650471e-01   6.2296383e-02
  5.4881587e+00   2.6619604e-03
 -7.4646056e-01   4.3270107e-02
  7.7924860e-01   1.8196762e-02
 -1.6405959e+00   2.0425489e-02
 -2.7113848e+00   1.8399000e-05
 -6.8511683e-01   3.4662993e-05
  2.0643285e-01   1.5034688e-03
 -5.5939740e-01   7.0333807e-04
  2.3495312e+00   1.1777678e-02
  2.3977904e-01   1.2193435e-02
  1.7503595e-01   5.9359957e-02
  5.9279144e-01   1.6335066e-03
  1.6985223e+00   9.6931879e-05
 -3.0220559e+00   1.2979759e-03
 -1.6656733e+00   8.8299297e-05
 -1.9724189e+00   8.1014987e-03
 -2.5013995e-01   3.7517596e-02
  1.5501275e-02   5.9191275e-02
  5.4987085e-01   1.2974155e-02
 -3.3542067e-01   3.6997716e-03
 -3.9160844e-02   3.2002229e-02
  1.2861487e-01   3.5731804e-03
 -5.6920862e+00   8.7103890e-03
 -1.2102437e+00   7.8086765e-04
 -1.0437971e-01   2.4794271e-02
  3.1992775e-01   1.1667440e-02
  2.1287606e+00   2.1810825e-03
  1.2238965e+00   7.8469448e-02
  3.3882001e-01   9.0555266e-02
 -7.1094465e-01   1.7376605e-02
 -9.6783346e-01   1.2369649e-02
  4.5609200e-01   2.7482966e-02
 -3.0529249e-01   4.8932485e-02
 -1.3230872e+00   3.6474018e-04
 -8.9182938e-03   2.4881260e-02
  2.5384718e-01   6.3101068e-02
  9.9306017e-01   1.5479455e-02
  2.9183878e-03   1.3895283e-02
 -8.8457793e-01   3.1322113e-03
  3.5338976e+00   3.3359069e-03
 -1.1597297e-01   3.4028880e-04
 -3.6838347e-01   1.1530336e-03
  4.9649674e-01   5.2575669e-03
  8.9474931e-02   1.3932018e-02
  1.9110363e+00   3.9253212e-03
 -8.3069599e-01   5.8573261e-02
  5.3811107e+00   8.8712703e-05
  2.9518409e-02   5.2035146e-04
  5.4810423e-01   3.5536874e-02
  5.8642185e-01   2.6449006e-02
  6.6551745e-01   7.6999352e-04
 -1.3059020e-01   8.1382595e-02
  3.5712475e-01   1.4656537e-03
 -1.5619072e-01   4.9507383e-02
  7.6295071e+00   4.1011834e-05
 -1.1934674e+00   1.3835380e-06
 -6.4672005e-01   5.2919075e-02
  1.8326851e+00   3.4688523e-03
  5.4819143e-01   6.5380422e-04
  3.2106813e-02   7.5673927e-03
  1.7208496e+00   1.0778238e-04
 -2.2362587e+00   1.9867215e-03
 -5.0896549e+00   5.0893459e-03
  3.7114680e-01   2.3935204e-03
 -1.2401977e+00   1.8366395e-02
  9.3000525e-01   7.9986332e-03
  1.6210091e+00   5.5698613e-03
 -1.8342620e+00   7.1765617e-06
  8.8168411e-03   1.2699614e-03
 -7.2885925e-01   4.4191051e-03
  2.4910948e-01   4.9444782e-03
  1.6151648e+00   1.6352287e-04
  4.2034429e-02   7.0454492e-03
  4.9226102e-01   5.7686929e-04
  1.0135850e+00   5.4373633e-02
 -1.7798003e+00   9.3188067e-04
 -4.8884249e+00   1.0660824e-04
 -4.7838557e-01   4.9080397e-03
  6.7417607e-02   1.5766444e-02
 -1.6579623e+00   1.1276305e-03
 -4.8984461e+00   4.1733142e-06
  6.5305750e-03   1.7838801e-03
 -4.1789131e+00   5.8555277e-04
 -2.4587163e-01   7.6075591e-02
  3.7698524e+00   4.1059649e-04
 -1.4899220e+00   8.4889822e-02
  4.7303770e-02   8.1750348e-02
 -3.5927050e-02   6.0102409e-03
 -2.9421112e-01   4.6116300e-02
 -9.8206185e-02   7.0764422e-03
 -9.0791798e-01   1.6670953e-02
 -6.1696714e-01   8.7801643e-02
  6.2767112e-01   3.9120503e-02
 -1.5962373e+00   9.5253643e-03
  4.1579041e-01   1.9198545e-03
  7.1776623e-01   6.0935695e-02
 -9.8323423e-01   8.8152982e-04
  2.7366209e+00   5.7300120e-03
  5.7522297e-02   4.1166726e-02
 -1.9286524e+00   1.9119489e-04
  1.9209032e+00   2.1472692e-03
  4.6232285e+00   3.4933726e-04
 -8.1256270e-01   6.7589607e-04
 -8.6447895e-02   8.7696379e-03
  4.4912374e-01   2.2944668e-02
  8.5685587e-01   9.0672992e-02
  4.8490295e+00   9.1793811e-07
  1.7753673e-01   9.8238075e-03
 -4.7664884e-01   2.7209604e-02
 -8.1153303e-01   4.3930992e-04
 -3.6264527e+00   1.0146116e-03
 -6.8234813e-01   7.3139789e-03
  6.1498815e-01   1.4642491e-03
 -1.7338052e+00   1.9502321e-04
 -5.1369923e-01   3.7338875e-02
 -1.7645682e-01   4.2213872e-03
  2.1863782e+00   3.6982278e-04
  3.6530635e-01   8.1484243e-02
  3.3242252e-01   1.1377131e-04
  1.5400261e+00   2.5785880e-04
 -3.7754357e+00   3.5036626e-06
 -1.2983588e+00   1.0723444e-02
  3.9932203e-01   1.2059992e-02
  1.1657528e+00   1.1640692e-03
  7.6389158e-01   3.3011200e-04
  1.1029450e+01   2.6089756e-04
 -2.3851857e-01   4.3793440e-05
  6.5878167e+00   1.1966992e-05
  1.3981502e+00   6.7103218e-04
 -1.8731622e+00   5.9314016e-03
  5.4737109e-01   4.6442691e-02
 -3.1320515e+00   7.4239986e-05
 -5.3576404e-01   2.4151158e-02
 -8.9863825e+00   3.6808906e-05
  1.6787121e+00   8.7838229e-03
  1.1085857e-01   8.8450588e-02
  6.9009103e-02   6.9099655e-03
 -1.7111780e-01   1.1580332e-04
 -9.0194188e-02   9.0083602e-05
  3.9488918e-01   9.6185785e-04
  7.6495689e-01   7.0493837e-04
 -1.2882050e+00   6.2168139e-04
 -1.6065345e+00   1.6448862e-03
 -6.5207642e-01   1.4775776e-03
  3.1314135e-01   7.2090775e-03
  1.5707626e+00   1.5785826e-02
  4.4129558e-02   1.1510079e-02
  7.3114496e-01   4.7565820e-05
 -6.0834032e-01   1.4720497e-03
 -1.0528890e+00   1.1045497e-02
 -1.2299685e+00   3.1075007e-04
 -2.3787913e+00   7.9611819e-03
  6.4931023e-01   4.9597763e-02
 -5.0602192e-03   1.0814082e-02
 -3.9556110e-01   1.0527608e-02
  5.2705083e+00   6.2670563e-03
  1.5908252e-01   1.0211542e-02
  2.2503855e+00   1.5782835e-03
 -6.0616678e-01   2.5686109e-03
  1.6969909e-01   1.2295733e-03
 -7.5392830e-01   1.5612700e-02
  9.3708783e-01   2.3159793e-02
  2.1334310e-01   2.1909209e-02
  1.4560680e-01   2.2213371e-03
 -2.7220366e+00   3.2342754e-03
  1.8775108e-01   1.9817129e-02
  1.0834923e-01   3.1248407e-02
  6.7901248e-01   4.9082100e-02
  6.7478418e-01   6.0028364e-05
  1.7502964e+00   2.5443322e-05
  2.6880905e-01   8.5567674e-03
 -8.1688774e-01   2.6185736e-03
 -1.3477747e+00   6.4979249e-04
  8.8104421e-01   4.3839375e-03
  3.1915489e-01   8.2197236e-03
  7.2224563e-01   1.4394923e-04
 -2.6248443e+00   4.3293047e-03
 -7.7324204e+00   2.0171397e-03
  3.0065598e-02   7.9223420e-04
  7.9891652e-01   8.7378370e-03
  4.6766471e-02   2.9519305e-03
  3.3579493e+00   1.5538884e-03
 -1.3158761e-01   1.7641376e-03
  9.5176125e+00   8.3300046e-04
  5.5755210e+00   1.5829082e-04
 -6.2696135e-01   1.0202872e-02
  2.8474745e-01   7.5578745e-03
  4.8035340e+00   3.2067974e-04
 -1.3937791e-01   2.3515457e-02
  9.1426587e-01   8.2831442e-02
 -7.7626032e-01   7.0965133e-04
  3.5178661e-01   1.2093928e-02
 -5.1219022e-01   3.6053579e-02
  3.2021430e-01   2.5197159e-02
 -1.8485384e-02   1.1304085e-02
 -2.9078540e-01   4.3893341e-02
 -4.4964167e-01   4.0700544e-02
 -5.9930748e-01   7.5129434e-03
 -7.1464219e+00   2.3240072e-03
 -3.5199516e-03   4.3979619e-02
  2.8796272e+00   1.8423399e-02
  4.2024702e-01   1.4596619e-02
 -1.1851848e+00   9.0455137e-02
  3.2801446e-01   1.3162044e-02
 -6.2775314e-01   1.0324216e-02
 -7.3131233e-01   2.4240024e-02
  2.6065802e-02   3.9240504e-03
  4.4255781e+00   1.5678111e-03
 -4.8356888e-01   1.0371565e-02
 -1.0731170e-01   5.4722115e-02
  4.0674429e+00   1.5111921e-04
  2.4594333e+00   6.9444912e-05
  5.2125292e+00   2.3733551e-04
  1.8980161e+00   6.6791743e-04
  5.0534087e-01   6.4304853e-03
 -1.4118519e-01   4.9420744e-02
 -2.5269952e+00   7.1819621e-04
  2.6927158e-01   6.2311874e-03
 -4.1664743e+00   1.1667630e-06
  1.4426945e-01   7.3871813e-03
 -1.5409303e-01   5.9469908e-02
  7.2309625e-01   4.5351125e-02
  1.3412604e+00   8.5788714e-03
 -1.0277754e+00   1.7833777e-02
  9.5945144e-01   4.5061115e-02
  7.7633351e-02   3.2468962e-03
 -2.6517868e-01   4.1777645e-03
  6.2289768e-01   5.1153619e-02
  4.3401608e+00   3.0306701e-05
 -8.7686285e-02   1.6564179e-02
 -1.2939204e-02   2.9643090e-02
  1.3283677e+00   3.2585017e-02
  4.2281706e-02   1.9086465e-03
 -2.7997866e+00   8.5909323e-06
 -1.5360577e-01   4.0737994e-02
  7.2686310e+00   2.2014154e-03
 -2.9934847e-01   1.0250075e-03
 -1.0848001e-01   1.8883770e-03
 -1.8123944e-03   5.5221673e-02
  1.0143486e+00   3.8745991e-05
 -1.7734602e-01   1.5847156e-02
 -1.7642244e+00   3.7374752e-04
  4.1491618e+00   6.2092568e-04
  1.6363348e+00   4.1263714e-02
  1.7198986e-01   8.9181624e-02
  6.1705661e-01   2.1110177e-03
 -6.5222180e-01   6.7786663e-03
  3.4003589e+00   7.1219046e-04
  2.0180477e-01   9.4219139e-03
 -7.4499297e-01   5.6926120e-04
 -1.2656085e+00   1.7408587e-03
 -3.7205443e-01   3.8927760e-02
  2.8066537e-01   2.2316664e-02
  7.2416067e-01   3.4552781e-05
 -6.7728348e+00   2.3059458e-06
 -2.7816622e+00   1.7709505e-03
 -7.9955477e-01   1.7402992e-02
 -3.7525249e-01   5.2876826e-02
  4.5806929e-01   8.0125421e-02
 -1.8650241e+00   7.0366636e-03
 -2.1421929e-01   1.0427952e-02
 -1.1691368e+00   3.8962902e-03
 -5.1467128e+00   4.1652645e-04
  3.2844135e-01   9.6731368e-05
  6.0559540e+00   4.0655734e-05
 -1.5688038e+00   2.7689766e-03
 -3.8612959e-01   6.6869006e-02
 -7.0391792e-01   1.3290189e-02
 -2.7884877e-01   1.5684720e-02
  7.1915781e-01   9.1976393e-03
  8.1485134e-01   8.3989818e-03
 -1.0977481e-01   1.0101398e-02
  4.4776738e-01   3.2833291e-03
  2.4543367e-01   2.1728275e-02
 -3.8425928e-01   2.0059339e-04
  4.2311792e+00   3.8713112e-04
  4.1612344e+00   9.0937414e-05
  5.2827042e-01   6.9150017e-03
  1.5660753e+00   9.1312232e-04
  1.5660569e-01   1.4793604e-02
 -3.1929031e-01   1.3650639e-02
 -1.5275458e-01   8.7673701e-02
 -2.1386085e+00   3.2477319e-04
  1.3868764e-01   3.3774752e-02
  9.2050815e-01   2.1131197e-02
 -7.7852583e-01   2.3228358e-02
 -8.1475186e-01   6.9377972e-03
 -6.8033554e-02   8.2587928e-02
  3.5695618e-01   5.1759925e-02
 -7.3552352e-01   4.7099959e-02
 -5.1035357e-01   2.5987054e-05
  5.1805753e-01   1.0142876e-03
 -1.1255287e-01   7.4895250e-04
  4.0848672e-01   6.5088592e-02
 -1.4761643e+00   3.0043905e-03
 -7.9596817e-02   3.2562353e-02
 -1.8886322e-01   4.5329906e-02
 -3.6934230e-01   6.5733502e-03
 -3.8285482e-01   6.0810748e-02
  2.6089904e+00   8.2948087e-03
 -4.4320005e-01   2.3560157e-02
  3.7462923e-01   5.1120970e-02
  8.4215587e-01   6.7597660e-03
  4.3523288e+00   6.2122977e-05
  2.9688584e-02   4.0801544e-02
 -9.4507879e-01   3.4411086e-04
 -9.0076405e-01   7.1647979e-02
 -6.4220572e-01   3.5012522e-04
  1.2762581e+00   6.6626415e-02
 -5.5230117e-01   7.5007871e-02
  3.6784646e-01   3.3789005e-03
  1.5735677e+00   7.3973243e-03
  6.3659376e-01   5.0934595e-03
  8.1177950e-01   4.9134792e-04
  2.2213466e+00   1.8683756e-02
 -7.2637856e-01   1.6496595e-02
  8.3584672e-01   7.3471300e-02
 -2.5925281e+00   1.0248398e-05
  2.9698257e+00   3.7664786e-04
 -1.5159319e-01   4.0560923e-04
  3.3624995e-01   1.0335760e-02
 -3.4390070e-02   6.6382647e-03
  2.1294354e-01   1.1424422e-04
 -9.6281105e-01   3.0408464e-03
  4.6502116e-01   6.8238385e-02
 -1.2324082e-01   3.6741735e-03
  1.9882342e-01   8.5050501e-02
 -9.6469837e-01   7.8963994e-06
  2.7166909e-01   1.0138793e-02
  1.1900543e+00   2.5437407e-03
  1.6515006e-01   3.1913836e-02
 -3.5820112e+00   1.0615474e-04
 -3.6627181e+00   4.2721600e-04
 -1.2580605e+00   4.3365045e-04
  1.8377721e-01   3.0595992e-02
 -1.0250554e+00   2.4616162e-03
  3.8009393e-01   8.3926127e-05
 -2.5907283e+00   8.2653729e-05
 -3.2776999e+00   3.4988850e-06
 -5.0877728e-02   4.0091411e-03
 -5.7561651e-02   7.1602151e-02
  8.6394942e-01   2.8342814e-03
  9.4392192e-01   1.1800350e-02
 -1.0050125e+00   1.1149365e-02
 -4.4011245e+00   1.5171182e-04
  2.5152256e+00   2.3377610e-03
  1.6096148e-01   8.7031495e-04
 -3.4573402e+00   3.7486728e-03
 -1.0763005e+01   1.5636625e-03
  2.9754879e+00   2.7440311e-03
 -5.7899219e-01   7.3719300e-02
  4.5569263e+00   1.9645707e-04
  6.2485057e-01   5.4305219e-05
  1.1789764e-03   4.2779639e-02
 -1.7627809e+00   5.4647509e-05
  2.9538085e+00   1.2451760e-02
 -1.9542519e+00   3.3049723e-06
 -3.2843462e-01   8.9146860e-04
 -5.8846658e-01   5.2307669e-02
 -2.6134598e-01   1.8198178e-06
  6.8897572e+00   2.7054530e-06
  4.3176308e-01   2.9916519e-03
 -9.9874812e-01   1.1011818e-04
 -9.3966597e-01   1.5087809e-02
  9.3424970e-01   2.6114153e-02
  1.1504778e-01   3.8337773e-03
  2.5025365e+00   9.4714703e-04
 -4.0651569e+00   4.0913219e-06
  2.3112768e-01   2.6208475e-02
 -2.9910841e+00   1.5649412e-04
 -4.0336914e+00   2.1845104e-02
 -1.9857678e-01   2.3477541e-03
 -3.7492313e+00   1.0558364e-03
  1.8020293e+00   3.5379599e-03
 -1.3870953e-01   8.7608516e-02
 -1.1842811e+00   1.0579809e-03
 -4.3322649e+00   3.1572759e-05
  6.6814055e+00   5.5571572e-06
  1.7860450e+00   1.5629290e-02
  3.0857549e+00   8.4405728e-03
 -1.5098746e+00   5.9844901e-05
 -6.3653702e-01   9.1177135e-05
 -4.7970581e-01   1.1900282e-04
 -2.7298421e-01   1.4295742e-03
 -9.5164198e-01   4.1172735e-02
 -3.2011111e+00   7.4239710e-05
  1.0584371e+00   1.8913845e-02
 -1.1881858e+00   1.6331575e-03
  1.9693017e+00   9.4033085e-02
  5.4385245e-01   7.3594086e-02
 -5.2723613e-02   1.7372277e-02
 -1.2913854e+00   1.0074173e-02
  1.3180054e+00   1.6332483e-02
 -1.2305156e+00   4.3315992e-02
  2.5865586e+00   1.3751649e-05
  4.5511270e-01   9.4514139e-02
  1.2281388e-01   7.5147551e-04
 -4.0446669e-01   5.7464141e-02
  1.3697162e-01   5.7686766e-04
  2.2293262e+00   1.9962143e-02
  1.5619425e+00   4.1035199e-04
 -4.0701485e-01   1.0682938e-02
  9.8130077e-01   3.8819526e-05
  8.1946898e-01   1.0289519e-02
  9.5247638e-01   1.2023791e-03
  3.3132738e-01   8.7734088e-03
  1.8375584e+00   1.2294233e-03
  1.6999541e-01   1.5381576e-03
 -2.5541987e+00   6.3745305e-04
  1.7563882e-01   7.3528076e-03
 -4.4096408e+00   2.1571198e-03
 -4.2153233e-01   7.2618551e-04
 -3.3222961e-01   7.5527802e-02
  5.2969608e+00   1.0417839e-05
 -4.7114852e-01   8.7667979e-02
 -4.2869944e-02   3.2598535e-03
 -5.1976222e-01   4.1443314e-02
 -1.4886226e-01   4.0351265e-04
  4.0397328e-01   6.0503167e-04
 -2.7328706e-01   2.8500571e-03
  3.9513841e+00   1.9616324e-03
  5.8297753e+00   1.2397411e-05
 -2.0218506e+00   1.0756670e-02
  1.1986562e+00   1.9431038e-02
  5.0675696e-01   3.7165702e-04
 -1.7776172e+00   4.5231820e-04
  6.4807498e-01   3.6561117e-03
 -1.6623547e+00   5.0154272e-03
 -2.2166613e-01   7.3029571e-03
 -3.9827392e-01   1.5586714e-03
  3.1727822e+00   7.8902877e-04
 -4.1987911e-01   1.8285071e-03
 -1.2167673e-01   3.3011916e-03
  9.9311775e-01   1.7919914e-03
 -8.0132675e-01   9.8221784e-04
  2.9195893e+00   2.8840075e-06
 -4.4815609e-04   5.1523279e-03
 -1.1835200e+00   2.4036426e-02
  1.5876545e+00   8.7322392e-02
 -1.7669681e+00   8.5433451e-03
 -3.1084499e-01   2.9435655e-02
 -1.0896724e+00   1.0273430e-02
 -9.8397309e-01   5.2476209e-03
  3.1413683e-01   1.4053200e-02
  3.2152913e+00   9.0832851e-05
 -9.2964017e-01   1.9361758e-04
  1.6959872e+00   1.3461080e-02
  4.8015863e-01   1.8563850e-02
 -1.1133970e-01   1.1538368e-03
 -4.6654096e-01   9.7257821e-03
  1.2121534e+00   1.3014625e-02
  3.3490989e-01   1.0797503e-02
 -1.7322978e-01   1.5144712e-02
  2.1632557e-01   1.5808018e-02
 -3.2580659e-01   4.0004039e-04
  1.2327390e+00   2.6520735e-04
 -2.2070549e+00   1.6878556e-02
  2.8334022e-01   1.7507388e-06
  4.1815338e-01   1.3042376e-03
  1.3945309e+00   1.6925676e-02
 -8.1883211e+00   3.7032168e-04
  2.1503498e-01   1.1083874e-02
 -8.6941445e-01   1.7320096e-03
 -2.8073955e+00   1.1974159e-04
 -4.6596587e-01   3.3470541e-02
  1.9332922e-01   1.6837704e-03
  1.8593643e+00   4.1557029e-03
 -3.9602301e-01   2.0604150e-02
  1.3014783e-02   8.0843279e-03
 -7.1333957e-01   4.1006096e-02
 -1.6395857e+00   4.7964067e-03
 -2.6826051e-01   1.7203463e-03
 -9.2608058e-01   9.2349743e-05
 -3.6191103e-01   6.7181536e-03
  7.5901645e-01   1.3254937e-03
 -1.3409017e+00   3.1340729e-02
  1.7792164e+00   1.3692692e-04
 -1.3486176e+00   3.2501567e-02
 -1.0960935e+00   1.4437677e-03
 -4.7990569e-01   2.3929285e-02
 -4.8187244e-01   1.4088386e-02
 -8.6698145e-02   2.5788750e-03
  1.1721260e-01   1.6716827e-03
  4.2452818e-01   9.0918012e-02
 -4.6717539e+00   2.2258806e-04
  1.7596922e+00   8.0727809e-04
 -1.7225760e+00   1.3341830e-03
 -7.2973317e-01   1.3687818e-05
  2.8000826e-01   4.2483927e-05
 -3.3649893e+00   1.6592025e-04
  1.7836698e+00   1.7583295e-04
  7.6547498e-01   3.5062462e-02
  9.1242266e-01   1.9170837e-02
  5.6044394e-01   1.0953204e-03
 -4.3042297e+00   6.3280098e-04
  8.1190348e-01   2.6744703e-02
  3.9552023e+00   1.4946412e-04
 -1.4162511e-01   2.5457743e-05
 -1.4047980e+00   6.9359824e-02
 -5.4759103e-01   3.4988911e-03
 -1.4199003e+00   7.2951607e-02
  1.2986799e+00   6.5739374e-03
  6.6682715e+00   2.6917867e-05
  8.8639522e-01   6.0667312e-03
 -6.9222850e-01   1.0080384e-02
  1.0321060e+00   1.0005532e-02
 -2.3217481e-01   5.0306208e-02
 -2.7064684e-01   1.7644215e-03
  2.0238677e-01   4.6385292e-02
 -1.2052053e+00   8.4566005e-02
 -2.6854616e-01   4.8375610e-02
 -1.1399450e-01   8.3152885e-03
  3.1231925e-01   2.2493729e-04
  2.3229365e+00   1.2924219e-04
 -4.2778213e-02   6.9337718e-02
  5.1083684e-01   2.6952775e-02
 -2.3075271e+00   7.2444059e-02
 -1.2204581e+00   5.1265337e-02
  3.7284951e+00   3.7999364e-04
  2.3824430e-01   8.0784470e-02
 -2.4057081e-01   3.6283224e-03
 -3.8901324e+00   1.6409419e-04
 -1.9058514e-01   4.5402381e-03
 -4.2782500e-01   2.2957828e-02
  3.6384642e+00   2.5955816e-03
  4.3744874e-01   8.5330837e-05
 -3.7856615e+00   1.6506206e-03
 -1.4457116e-01   2.0149311e-04
 -1.7788650e-02   9.4810106e-02
  2.5939436e+00   7.5795747e-06
  4.5011815e-01   1.5530144e-03
  1.3543506e+00   9.1056529e-05
  1.1856169e+00   8.3608647e-06
 -2.2311257e-01   4.5293812e-02
 -3.8835294e+00   2.5259235e-04
 -4.4453788e-01   5.0455507e-02
 -9.6186146e-02   7.5332667e-03
  4.7656251e-03   1.5171989e-02
  8.0602401e-01   2.1145146e-04
 -8.1230205e-01   5.9308928e-05
  9.3050140e-01   1.1630611e-03
 -8.6682981e-01   7.2518485e-03
 -5.3040308e-01   7.2672345e-02
 -3.8531259e-01   1.6146438e-02
  3.6816353e-01   5.9655160e-02
  1.3128601e+00   3.9937571e-02
  3.8112676e+00   2.7092639e-03
 -2.8969797e-01   1.2018409e-02
 -1.0662949e-01   3.8328642e-05
 -2.6446801e-01   7.0185892e-02
 -1.4565951e-01   3.3656530e-02
  8.0034393e-01   2.5206223e-02
  7.6126015e-01   8.1481676e-06
 -5.6287479e-01   9.9116556e-02
 -1.0076311e-01   3.3144046e-02
 -1.9034192e-01   6.5351538e-02
 -6.3861954e-01   1.9247968e-02
 -7.4537420e-01   1.0620905e-02
  3.6938366e-01   3.5088502e-02
  6.4436466e-01   5.3264466e-03
  1.0974414e-01   4.9495429e-02
  1.7275171e-01   4.1714320e-03
 -1.7750558e-02   1.7314435e-03
 -7.2088414e-01   8.1574969e-02
 -2.6663041e-01   5.6679412e-03
 -1.3838619e+00   7.3825195e-02
  3.8151437e-01   1.3423231e-04
  1.1211144e+00   9.5833890e-02
  5.0718598e+00   1.2161997e-04
 -1.9931459e-01   3.6471978e-02
 -2.5093690e-01   5.0636388e-02
 -9.9831325e-01   5.6290883e-03
  6.8961635e+00   1.7635643e-05
  6.3622946e-01   9.6986592e-02
  1.9594832e-01   1.5036488e-02
 -6.8973221e-02   1.7720927e-02
 -9.0347636e-01   8.6366437e-02
 -1.4274758e+00   1.6705710e-02
  1.0533595e+00   9.6637376e-02
 -4.1173368e+00   6.5983757e-03
  2.5928974e-01   3.2022092e-02
  1.0351919e+00   1.3588829e-02
 -1.8317262e+00   3.9912228e-02
  1.5199760e-01   1.4293721e-02
 -3.2269852e+00   4.1744738e-06
  4.1469687e-01   5.7736382e-02
 -6.0389066e-01   1.2494385e-02
  1.7831725e-01   2.7664565e-03
 -1.8259184e-01   4.3697781e-03
 -2.2136106e+00   6.3663472e-05
  1.2749341e+00   1.5100834e-03
  4.5156493e+00   1.9522359e-04
  2.1631550e-02   2.2976983e-02
  2.7209806e-01   7.0905578e-03
  3.2594788e-01   1.0726878e-03
 -3.9092997e-01   4.7714375e-02
  1.6285689e-01   3.3966318e-02
  2.6145980e+00   9.2650333e-04
  4.0062654e-01   7.7717676e-05
 -4.3569679e+00   3.5337583e-04
  3.8704157e-01   9.4923645e-04
 -3.6391439e+00   2.2491282e-02
 -8.6053914e-01   7.8157736e-03
  1.0577202e-01   1.9545110e-02
 -2.2076234e-01   2.5254380e-02
  7.9908866e-01   5.1974612e-06
  4.4901829e-02   9.6238784e-02
  9.2611003e-01   6.5331678e-03
 -2.9960126e-01   2.7757168e-02
 -1.7404135e-01   8.9125624e-03
 -6.0251224e-01   4.9324642e-04
  5.6358820e-01   1.2703421e-02
 -1.6625963e+00   2.3431921e-02
 -8.3341792e-02   2.3827372e-02
 -1.1973658e+00   9.9278957e-02
  9.9231377e+00   4.8929700e-03
  2.8519154e-01   3.2028154e-02
 -3.2216603e-01   5.4909945e-03
  6.5512113e-02   7.8253960e-03
  9.2282362e-02   1.2226590e-03
 -2.3358311e-01   5.4367976e-03
 -9.9697179e-01   3.4514478e-06
  2.9313698e-01   8.9955747e-02
 -2.2220774e+00   5.3403955e-03
 -9.1462886e-01   7.2503765e-04
  6.0481448e-03   2.1959331e-03
 -6.8876839e-01   1.4660149e-03
  1.4676180e-01   4.9612604e-02
  2.0428398e-01   7.8315169e-02
 -1.7968922e+00   1.9533014e-04
  4.2645419e-01   2.8801979e-02
  7.5499529e-01   3.7911609e-03
  6.5658264e+00   4.6758013e-04
 -2.2205718e-02   3.1239057e-03
 -4.2065641e-01   5.1042140e-02