 -1.1237956e+00   5.5246372e-02
 -1.0130819e+00   5.6163436e-03
 -5.4461813e+00   9.8403972e-03
  4.9511104e+00   4.5769167e-04
 -5.3722563e+00   7.1484833e-03
  1.0530711e+00   7.9465061e-02
  2.6689446e-01   7.4938081e-02
  2.1847053e+00   5.2816063e-02
 -6.0994267e+00   4.1736662e-02
  1.7833785e+00   3.1611279e-02
  2.0243576e+00   2.7405465e-02
 -5.0039501e+00   5.7591118e-02
 -9.4235837e-01   3.8440826e-03
 -4.1663561e+00   2.9533744e-02
 -3.1359985e+00   6.7053679e-03
 -3.3283625e+00   2.1377895e-03
 -6.5113297e+00   4.0269140e-02
  1.4435705e+00   3.7438437e-02
 -2.5051517e+00   7.5342353e-03
  1.0901352e+00   9.1470769e-03
  1.2885541e+00   2.7092886e-03
  1.0597969e+00   5.9435581e-04
  1.4924659e-01   8.3785385e-02
  1.8297555e+00   3.2716889e-02
 -1.0271106e+00   1.1866034e-04
 -4.8326215e-01   9.2049308e-02
 -7.7525097e-01   2.7114980e-02
 -3.2165186e+00   7.8744916e-03
  1.4042673e+00   7.5364731e-02
  1.1971092e+00   5.5469956e-02
 -8.1694019e-01   4.6685645e-03
  1.3495497e+00   5.1759340e-02
 -1.3101342e+00   7.4266434e-02
  7.0442545e-01   8.9511268e-02
  8.6164433e-01   6.0110219e-02
 -5.0868859e+00   3.7349526e-02
 -3.0468004e+00   2.9194085e-03
  2.0756131e-01   4.1343853e-02
  6.9168854e-01   1.4613891e-02
 -5.9293013e+00   5.8101740e-02
  1.4367386e+01   5.8302414e-03
 -2.3148021e-02   3.9551511e-02
  2.8145840e+00   1.7995689e-02
 -1.9712912e+00   2.9626608e-02
  2.4419360e+00   1.7582799e-05
 -3.1429441e+00   9.9364226e-04
  1.5975051e-01   4.7171563e-02
  2.2678755e-02   2.3413816e-02
 -1.9726039e+00   2.1111460e-03
 -3.6099904e+00   1.3061371e-02
  2.6151767e+00   1.9162389e-02
 -5.8137364e+00   8.9500934e-02
  3.1261730e+00   2.1117505e-02
 -6.1808691e+00   1.1749783e-03
 -1.2816110e+00   5.6945812e-03
 -6.9629931e+00   4.5311125e-03
 -1.6238126e+00   4.5722980e-02
 -7.0412166e-02   2.7808661e-03
 -1.8354000e+00   3.6867190e-02
  1.2233324e+00   9.4288746e-03
 -3.1104171e+00   2.1368296e-04
  1.1869980e+00   1.2389005e-02
 -3.4182844e+00   5.6538046e-03
  2.4773877e+00   6.4626355e-03
  2.5146738e-01   4.0079560e-03
 -9.2909837e-01   4.7517829e-03
 -6.1084956e-01   5.0189182e-02
 -1.8901680e+00   1.2770533e-03
  3.0702606e-01   7.8271725e-05
  8.6667019e-01   4.5948247e-03
  6.8058962e-01   5.7108812e-02
  1.1831038e+01   1.1319647e-02
  3.4890897e+00   1.9339267e-02
  4.9022117e+00   7.5796567e-02
 -2.2399893e+00   3.9689676e-03
 -1.3193619e-01   3.9806182e-04
 -3.1660929e-01   1.2715013e-03
  4.1359740e-01   2.4212347e-03
 -5.2710581e+00   9.3285322e-02
 -1.8102924e+00   4.6302737e-03
  4.3908602e-01   2.9149078e-04
 -6.4752024e-01   6.9601059e-02
  3.0938292e+00   9.8808385e-02
  1.3346984e+00   2.1239301e-02
 -2.5599463e+00   6.0950328e-02
 -1.7410564e+00   6.8934783e-03
  2.3137975e+00   3.9837204e-02
 -4.8623824e+00   3.9033372e-02
  1.7683815e+00   5.1645696e-04
  2.8000614e-01   1.8558001e-02
  1.0391722e+00   2.4193548e-02
 -5.2595758e+00   9.4935194e-02
 -2.0903499e+00   3.4882102e-02
 -8.3300155e-01   5.3916860e-02
  1.6264834e+00   6.8920874e-03
 -4.2721529e+00   1.6447004e-02
 -3.3939152e+00   8.5809873e-04
  3.0756366e+00   6.2368331e-03
 -2.5140805e+00   2.3696637e-03
 -2.7396825e-01   1.2369889e-04
 -3.1495652e+00   4.7453982e-03
 -4.9359441e+00   7.7126068e-03
 -5.8864002e+00   2.4175139e-03
  3.0797261e-01   2.8618436e-02
  6.1982608e-01   1.6740751e-02
  3.3176255e+00   2.0681225e-02
  1.3572086e-01   7.0068415e-04
 -4.9397211e+00   2.0431206e-03
  1.9402353e+00   3.3158252e-03
  5.9351534e-01   3.8569409e-03
 -6.0177383e+00   3.1427789e-02
  8.8326573e-01   6.1717078e-02
 -6.2772763e-01   1.2165434e-02
  1.5311730e-01   5.3569255e-03
  2.5608327e+00   5.3381499e-02
  4.6872199e-02   4.0226836e-02
  9.5808516e+00   2.3281921e-04
  8.1276350e+00   9.6932493e-02
 -1.4728831e+00   8.6441010e-02
 -1.1233099e+00   2.8112046e-02
  5.8002453e+00   4.6393224e-03
 -5.6707730e+00   4.8632734e-02
 -3.1123765e+00   9.0036303e-04
  1.7590374e+00   8.7566795e-03
  3.4967735e+00   5.7774140e-03
  4.1744261e+00   3.9084759e-03
  3.6328795e+00   2.3062066e-03
  5.4223442e+00   1.0292502e-02
  7.4605787e-01   3.4995922e-03
 -2.3183051e-01   2.6421487e-02
 -2.2360003e+00   1.4720211e-03
 -3.6672536e-01   5.0253425e-02
 -2.6735964e+00   2.7281567e-02
  6.6533275e+00   6.3217187e-04
 -3.1024549e+00   3.8201049e-02
  1.7690796e-02   6.7516848e-02
 -6.8884048e+00   1.9130006e-02
 -1.0829377e+00   3.2811955e-02
 -1.3990520e-01   7.0718199e-02
  2.9127340e+00   6.5621478e-04
  1.8613058e+00   1.4588545e-02
  1.4514264e+00   7.4857049e-02
 -4.4472842e+00   7.4137218e-02
 -8.1211081e+00   7.1472131e-02
 -8.7200632e+00   1.1777965e-02
 -2.5576103e+00   1.1913738e-02
  7.7783837e+00   1.7683137e-02
  1.9583700e+00   1.2515563e-02
 -2.9985993e+00   4.8542302e-02
 -1.5708821e+00   4.0250208e-02
  7.6872450e-01   3.2638200e-02
 -2.4941130e+00   1.0794500e-04
 -1.1653576e+00   7.7877077e-03
  8.0719604e+00   8.4475160e-04
 -2.1455278e+00   6.1878194e-03
 -6.5667090e+00   4.2019226e-04
  1.7990980e+00   4.2670220e-03
 -1.6072235e+00   1.8974924e-02
 -7.0023394e+00   2.4244168e-03
 -5.0962958e+00   2.4627810e-04
 -5.3859185e-02   3.0724235e-02
 -8.8422042e-01   4.9404990e-02
 -3.4820368e+00   1.5385633e-03
 -2.9462597e+00   4.8496269e-02
 -2.5624374e-01   2.1784319e-02
  3.6746272e-01   1.3599852e-02
 -7.4051249e-01   7.9433434e-03
  1.7625406e+00   6.5601066e-02
 -8.7264748e+00   9.2644840e-03
  6.8554753e-01   7.2869525e-04
 -7.6471782e+00   5.4036897e-02
  5.1907134e-01   1.6508969e-04
  6.2269635e+00   2.8967021e-03
 -2.2151010e+00   4.3752280e-04
  4.8510761e+00   1.7916221e-03
 -4.4152212e+00   1.4131790e-03
 -5.7288008e+00   2.4381310e-03
 -5.1752648e+00   9.6078712e-04
  7.8121346e-01   1.4924455e-02
 -8.5000372e+00   4.1935421e-03
  4.5258942e+00   1.0799833e-02
 -2.0283849e+00   3.3072017e-02
  5.7811890e+00   1.2689678e-02
  4.3196428e-01   7.5200782e-03
  4.2042994e+00   2.0120302e-02
 -8.8688642e-02   1.4701316e-03
  1.9400468e+00   1.5961120e-03
 -7.8499804e+00   1.0195813e-02
  5.0914454e+00   1.3260706e-02
  3.1354778e+00   2.7206156e-02
 -6.6597909e-01   8.2292390e-04
 -4.6170940e+00   5.9815054e-03
 -3.7738676e+00   1.6858440e-02
  4.5684072e-01   1.2679271e-04
  5.2555424e-01   2.4700116e-02
  2.7442648e+00   8.4380150e-02
  7.3044628e-01   3.5348486e-03
  4.1592093e+00   7.9249151e-02
 -3.7140117e+00   8.1126869e-02
  5.4183588e+00   1.6962737e-03
  7.2368860e-01   2.3072533e-02
 -1.0897354e+01   2.1216121e-02
 -4.5256333e+00   2.4246847e-02
  4.2098246e+00   1.9896714e-02
  9.0072136e+00   5.0911810e-02
  1.3049394e+00   4.2088270e-02
  4.0558167e+00   4.5609139e-02
  3.0189543e+00   2.2142168e-04
 -1.3277252e+00   2.0775184e-02
 -6.5462238e-01   4.9358252e-03
  2.7195098e+00   2.6220653e-02
  2.1359569e-01   4.1478489e-02
  3.7177265e+00   1.4303854e-03
  4.2515168e+00   1.6088592e-03
  5.0126281e+00   4.6606135e-04
  6.5815580e-01   2.1446468e-02
  1.5370451e+00   7.5756949e-03
 -6.3968177e+00   3.4168209e-03
  6.2648004e-01   2.3131247e-03
  2.5518775e+00   7.4541382e-02
 -2.9888532e+00   1.2241477e-04
  7.5793916e-01   3.3218913e-02
  3.7485948e+00   7.9330236e-02
  6.2798530e-01   4.5492083e-02
 -2.2219288e+00   1.1230575e-02
 -8.8695800e-01   2.9275097e-02
  2.9757748e+00   1.4371224e-03
 -8.1376772e+00   2.4204062e-02
  3.4504931e+00   3.5873684e-03
  1.0702642e-01   1.8259171e-04
 -6.1992712e+00   6.7796581e-03
 -2.5031805e-01   4.4074035e-04
 -1.7612770e-01   1.2261850e-04
 -1.5530581e+00   2.6279807e-02
  2.0715526e-01   9.2269018e-02
  4.5335708e+00   1.3077321e-02
  1.2006054e+00   1.6408091e-02
 -1.5210754e+01   1.2005765e-03
 -7.5282536e+00   5.1880185e-03
  5.4528600e-01   2.5636824e-03
  8.6264467e-01   5.8526721e-02
 -3.3319399e+00   1.6029295e-02
  4.2422657e+00   2.3118316e-03
 -4.2704633e-01   9.3627967e-02
 -3.2949820e-01   1.0041557e-02
 -1.7143080e+00   3.0503260e-02
 -1.3032247e+00   2.0549260e-02
 -8.0436036e-02   6.8626464e-03
  1.4194010e+00   5.7673950e-02
  1.5818828e+00   7.1453280e-04
  2.2121205e+00   3.5705071e-04
  1.2736795e+00   1.9299478e-03
  1.6923141e+00   4.3682881e-02
 -1.1251067e+00   4.5215923e-02
 -4.1664300e+00   3.5046026e-02
  2.4833457e+00   5.1879114e-03
  9.6526253e-01   5.1259037e-02
  6.2000060e-01   1.2775897e-03
  6.5260005e+00   3.6292516e-03
 -5.5844295e-01   2.0387365e-02
 -1.3800663e+00   7.7187538e-02
 -9.7088957e+00   2.7382621e-03
 -8.5502452e-01   6.1808977e-02
 -3.3299041e+00   9.0849079e-04
 -4.1861320e-01   9.6192369e-03
  3.1804576e+00   1.9764682e-02
 -5.4119606e+00   2.1213721e-03
 -3.0960069e+00   2.7736840e-03
 -2.5946658e+00   6.4900640e-05
  2.0185921e+00   9.9682370e-03
  7.2221839e-01   1.0294289e-02
 -4.2108259e+00   1.6957043e-03
 -9.4793320e-02   2.4931490e-02
 -1.1463337e-02   7.3539437e-04
 -1.7681681e+00   6.2125796e-03
 -6.7473054e+00   1.9061692e-03
 -9.2028290e-01   6.1697778e-03
  2.9974275e+00   4.2775344e-02
 -8.8603945e+00   1.1853001e-02
 -4.3345204e-01   4.4782080e-02
  1.3751180e+00   3.1038064e-03
  1.4475390e-01   3.5341932e-03
 -4.3249340e+00   2.3316823e-02
 -8.1290156e-01   4.4055846e-02
 -1.6075594e+00   9.1936631e-04
 -4.3695688e+00   2.2886569e-02
 -2.2773004e+00   7.8945654e-05
 -3.9304760e+00   3.7559541e-03
  2.8848364e+00   4.0347053e-04
 -1.5409188e-01   9.0981781e-02
  2.9674468e+00   1.1783051e-02
  4.7206936e+00   6.2155565e-03
  2.3390214e+00   5.1180847e-02
  1.1223308e+00   1.0747334e-02
 -1.5135245e+00   3.2074139e-02
  1.6598303e+00   2.4682894e-02
 -7.3460722e-01   5.2345857e-02
  9.3880737e-01   5.3779487e-03
  1.4158472e+00   2.1992512e-02
  8.3422482e-01   5.5103615e-02
  1.5203755e+00   4.0097117e-02
  1.1527057e+00   3.2057606e-02
  8.6296835e+00   9.9550234e-04
  5.3316075e-01   2.6876014e-02
 -9.5862389e-02   5.4870483e-02
 -9.1170013e-01   1.0257650e-02
 -2.6769876e+00   1.8745688e-03
 -2.6078570e-01   1.7254552e-02
  1.2906241e+00   5.4636868e-03
  7.9284513e-01   2.5628570e-03
  4.5282354e+00   4.7041299e-03
 -2.7623463e+00   9.4599135e-02
  2.3601055e+00   7.2931096e-02
  2.4597182e+00   1.1351047e-02
  1.5929667e+00   3.1393911e-03
 -3.8250647e+00   1.5648875e-03
 -2.7148378e+00   3.0575396e-02
  8.6957383e-01   1.8257350e-02
 -1.1806949e+00   5.7329137e-02
 -2.1039295e+00   8.3159477e-02
 -4.8285469e-01   1.4119179e-03
 -5.6665099e-01   2.2314608e-03
  7.7688301e-01   6.9820113e-02
  1.5021714e+00   8.7315872e-02
 -6.2493253e+00   1.5239854e-04
  1.9516175e+00   4.0899955e-02
 -8.0480307e-01   6.5816991e-02
  5.3962880e-01   9.1189193e-03
  1.6321321e+00   9.1538513e-03
 -3.8803418e+00   3.2033615e-02
  2.7961063e+00   6.7643700e-03
  3.0191491e+00   4.7554217e-02
  2.9495888e+00   7.4495077e-02
 -5.3142576e+00   3.0503878e-03
  1.5276678e-01   3.7350431e-02
 -1.1471316e+00   1.7169535e-03
  1.7427595e+00   6.1773006e-02
 -2.1015903e-01   6.2039983e-04
 -1.4658718e+00   1.6822544e-03
  7.1328168e+00   2.3514653e-02
 -2.5605638e+00   3.9781301e-04
  3.6362860e+00   5.9078076e-05
  1.9713074e+00   1.2475544e-02
 -1.3068143e+00   1.1401103e-02
 -4.9150491e+00   1.6677493e-02
 -5.6907892e-01   1.9705396e-02
 -1.6439725e+00   2.6085088e-04
  2.8131670e-01   8.2577998e-03
  5.3081608e+00   1.8878900e-03
 -1.8923810e+00   8.1371851e-02
  3.8612740e+00   2.4374736e-02
 -1.7865331e+00   3.2423031e-02
  7.1768266e-01   6.5721325e-03
 -2.3397191e+00   5.3085866e-03
 -8.4077835e-01   6.4832352e-02
  2.3947525e+00   1.6657980e-02
  7.6436911e+00   1.3950119e-03
 -1.2080147e+00   1.0504332e-02
  1.3816030e-01   4.9816981e-02
  1.3401376e+00   1.8140242e-02
 -2.2117882e+00   3.2123506e-02
  3.2579947e+00   4.7596913e-02
  1.1116612e+00   8.0311000e-02
 -1.2591140e+00   3.1343412e-03
 -7.6760044e+00   2.1722631e-03
 -1.9182855e+00   2.3205994e-02
 -3.9163084e+00   2.0934299e-03
 -4.5231718e-01   7.5958468e-02
  5.4817063e-01   2.3931291e-02
  6.3392067e+00   7.9207728e-03
  1.2502569e+00   8.3761483e-02
  1.1119509e+00   8.6844467e-02
  9.8211565e+00   1.3553451e-03
  2.6914034e+00   2.1281566e-03
 -1.2963721e+00   5.9873521e-02
  9.6030891e-01   9.3128212e-04
 -5.0654674e-01   4.0837977e-02
 -2.7450531e+00   1.6279218e-03
 -5.1146855e+00   5.1222052e-03
 -3.3860440e+00   1.3250228e-03
 -9.4853067e-01   5.5262029e-02
 -7.6740727e+00   6.6618406e-04
 -4.0674605e+00   3.1629562e-02
 -3.9106300e+00   5.7883658e-02
 -4.0254064e+00   2.6829496e-03
  2.0306849e+00   3.0987095e-02
  2.1703873e+00   4.2758393e-03
  1.3332803e+00   7.3355618e-03
 -6.2480283e-01   3.7631426e-02
 -1.8905038e+00   1.8117607e-02
  2.1008039e+00   1.8068867e-02
 -2.2968795e+00   3.2057802e-03
 -2.1426933e+00   1.9454912e-03
 -2.6222050e+00   1.1125870e-02
 -2.2484903e+00   8.5502694e-04
 -1.1850461e+00   1.0852472e-02
 -1.4970893e+00   1.7130805e-02
  1.1392021e+00   6.3645286e-03
  2.4555089e+00   6.9291152e-02
  2.2298191e+00   7.1570367e-02
 -4.3661923e+00   3.3105470e-02
 -1.9917805e+00   2.5045259e-02
  6.8529862e-01   7.3339187e-02
  4.8481460e+00   1.0878677e-03
 -4.0871963e-01   5.8509737e-02
 -1.0924113e+00   3.7722673e-02
 -1.6808562e+00   4.1197464e-02
 -1.6306911e+00   5.1045246e-02
  4.8510590e+00   2.8742186e-04
 -1.2656339e+00   3.5748444e-02
  1.0832320e+00   1.9290190e-02
 -6.3357645e-01   2.2053116e-03
 -3.9980350e+00   2.2945914e-03
  2.8800157e-01   1.7297924e-03
 -6.8914813e-01   1.5848946e-02
 -1.7757818e+00   1.7285334e-04
 -1.4235585e+00   4.7504611e-02
  1.0887992e+00   3.7818074e-02
 -1.1019260e+00   7.5776229e-04
  9.3770113e+00   1.0537599e-02
  5.5852926e-01   8.6245738e-02
 -1.2274774e+00   5.3855468e-02
 -3.7462513e+00   5.0038664e-04
 -3.7659717e-01   1.0893677e-02
  9.1602831e+00   1.9248139e-02
  4.9578824e+00   4.1417662e-02
  4.7904125e-01   2.0643927e-03
  1.1112200e+01   1.0517071e-03
 -4.1681256e+00   3.6268476e-02
  6.5816889e+00   1.8475148e-04
  1.0095236e+00   2.5493730e-02
  1.5387851e+00   5.4004915e-02
 -2.8528762e+00   8.5684307e-02
 -3.9127893e+00   4.0250621e-03
  1.4876583e+00   2.6069518e-02
 -9.0373249e+00   3.9442381e-04
  5.7207143e-01   8.7603610e-03
  2.6126900e-01   4.5694401e-03
  2.2108839e+00   5.6458591e-03
 -4.3300644e-01   4.1920010e-02
 -3.4669265e-02   3.0413340e-04
  1.4453499e+00   1.1379243e-02
 -2.7068272e+00   4.4967122e-03
 -2.0054982e+00   4.3506943e-02
 -1.2969918e+00   3.4948580e-03
 -1.2655349e+00   2.7296470e-02
 -2.6474154e+00   1.0126673e-02
  1.4164413e+00   9.1436148e-02
  4.1108552e-01   7.7781305e-02
 -1.9513031e+00   3.8899526e-02
  3.1141264e+00   1.2326130e-02
 -2.9020839e+00   1.3487236e-02
  2.6907706e-01   9.8351993e-02
 -1.4158170e+00   2.1277934e-03
  3.3429027e+00   1.6217235e-02
  3.1652577e+00   6.5243500e-03
  2.7713203e+00   2.5975753e-02
  5.7483697e+00   6.4867211e-04
 -1.8854260e+00   5.8167670e-02
  4.0958195e+00   2.8973655e-03
 -6.6085398e-01   4.4940088e-02
  2.3948655e+00   3.3099283e-02
 -1.9927491e+00   2.2122694e-02
  2.1030018e+00   2.7211258e-02
 -2.3765571e+00   1.3491966e-02
 -1.1110569e+00   8.2974238e-03
 -2.8620706e+00   7.9032342e-04
 -2.0581384e+00   1.5218571e-02
  1.6786469e+00   4.1140718e-03
 -2.6591914e+00   3.1638073e-03
 -3.9531829e+00   3.2305647e-02
  9.6446013e-01   1.9886224e-02
  3.8881366e+00   8.2067614e-03
 -1.9567815e+00   6.6262260e-02
 -1.5274901e+00   2.5161670e-04
  2.3887079e+00   4.6954423e-02
  4.1754135e-01   5.2143708e-03
 -1.9316675e-01   3.6295898e-02
 -1.1102630e+00   2.6735371e-02
 -7.6412220e+00   7.4031169e-04
  2.6492405e-01   2.6405246e-03
 -7.3173203e+00   1.1587409e-04
 -6.9116317e-02   3.1654506e-03
 -2.9004242e+00   5.1645558e-02
 -3.1313086e+00   7.5343534e-02
  9.4937601e+00   5.4229819e-03
  6.7092705e+00   4.0140163e-02
 -1.5545737e+00   5.6973272e-03
  4.9468856e+00   4.8009120e-02
  4.7520819e+00   1.7962517e-03
 -7.3099691e-01   2.2475349e-02
 -1.1484388e+01   2.7484329e-02
 -1.6031041e+00   4.0458418e-02
  5.2697968e-01   3.2209642e-02
  1.6184853e-01   9.9009857e-02
 -2.0691884e+00   8.5789554e-02
 -6.9454479e-01   5.7062991e-02
  6.7001909e-01   3.8063675e-02
  8.7670451e-01   6.1009997e-03
  3.6804956e-01   1.1337265e-02
 -7.4522982e+00   2.0010611e-03
  4.1027269e+00   6.3071936e-02
  3.2817862e+00   3.1740602e-02
  2.4242299e+00   5.3426128e-02
 -7.8417873e-01   4.8966121e-02
  9.2957515e-01   2.6835717e-02
  1.1300900e-01   8.8940784e-03
  3.1616127e+00   7.1819662e-03
  1.1547915e+00   4.4454291e-02
  6.2589231e+00   1.6655251e-02
 -4.5660815e-01   1.5307206e-02
 -3.7362406e-01   1.8833686e-03
  3.5337169e+00   6.1708027e-03
  2.4411626e+00   2.7763125e-04
  5.2411728e+00   7.6887646e-04
  1.8077739e+00   5.5242406e-04
  1.1280605e+00   9.8278634e-03
  2.2827554e+00   5.5748918e-03
 -6.9511695e+00   2.5345357e-03
  2.5184104e+00   4.5527697e-02
 -5.4389615e+00   2.0034518e-02
  1.1082036e+00   3.3060391e-02
 -1.8867425e+00   6.3764073e-02
  5.0540009e+00   1.6364595e-02
  4.6161122e+00   2.0944001e-02
 -3.7239428e+00   4.6254066e-03
  4.2163336e-01   4.6719030e-02
  3.1072600e+00   1.5273525e-02
 -2.8754950e+00   2.6483424e-02
 -7.7380222e-01   9.7615369e-02
  5.8087072e+00   6.0548917e-03
  6.1716490e+00   3.8751869e-03
  8.7450784e-01   8.9080483e-02
 -4.1136554e-01   5.7900874e-03
 -2.7270803e+00   5.9284106e-02
 -2.8045204e+00   1.0543979e-03
  2.9131379e+00   6.6234395e-03
  7.0276475e+00   2.1333278e-03
  4.9391747e-01   2.6411656e-03
  4.3906295e-01   2.0086050e-03
  4.8371258e+00   9.5803794e-03
 -8.8883543e-01   5.4482962e-03
 -5.1564586e-01   2.0277722e-02
 -1.8623992e+00   2.2752907e-03
  4.3967676e+00   6.6237670e-04
  3.0746968e+00   1.0324031e-02
  3.3593085e-01   6.7093976e-02
  4.5337791e+00   1.5882030e-02
 -8.6154467e-01   6.5430091e-03
  1.3849804e+00   1.1712387e-02
 -2.5943155e+00   8.9407088e-03
 -1.8801138e+00   1.1052095e-02
 -9.9400800e-01   2.2687986e-02
 -3.4555444e-01   8.8577634e-03
  1.6167712e+00   9.8129378e-05
 -2.5288937e+00   9.7729648e-03
 -6.7701168e+00   3.3262368e-05
 -4.3828626e+00   1.1843458e-03
  2.2207851e+00   4.8747521e-02
  5.2926102e+00   9.9946163e-04
  5.2019758e+00   3.8170736e-02
  7.7220922e+00   2.8754905e-02
  2.3855772e+00   4.4161532e-02
 -1.6418159e-01   2.5159949e-02
 -5.7393508e+00   2.0071692e-03
  1.4877375e+00   1.2791374e-02
  6.1229382e+00   1.8531204e-03
  2.6456454e-01   2.7321154e-02
  1.9091433e-02   3.1059833e-02
 -3.1303879e-02   3.6047328e-02
 -2.5937774e+00   3.2093294e-02
 -2.6495120e-01   1.3640027e-02
  1.2366549e-01   8.4542874e-03
 -5.0839200e+00   9.8743532e-03
 -4.2331913e-01   5.1456477e-02
 -1.5222564e-01   8.4050648e-02
  2.1791746e-01   5.3204531e-03
  3.3431044e+00   1.2834637e-02
  5.9176064e+00   1.1898080e-02
 -5.3611541e-01   5.7981186e-02
  1.7767751e+00   2.2047191e-04
 -7.6593843e+00   1.7625207e-02
  1.8746495e+00   2.0826489e-02
  1.4251760e+00   3.0182095e-02
 -2.2073944e+00   1.4087786e-04
 -1.5002028e+00   1.7570507e-02
 -4.6324113e-01   9.3488082e-02
  2.5214577e+00   1.2358130e-03
 -2.0726392e+00   2.8886655e-02
  2.2314267e+00   6.7455374e-02
  4.3829304e-01   8.5171562e-04
 -1.2296070e+00   5.2671529e-02
  1.4902757e-01   2.2016872e-02
 -4.4070973e+00   6.6996597e-02
  1.4382097e+00   2.7891833e-02
 -1.7445175e-02   4.3030627e-02
 -1.6597811e+00   7.3570117e-02
 -6.2420268e+00   3.5725374e-02
  1.1269870e+00   5.2207302e-02
  6.2178268e+00   5.1376452e-03
  1.8233805e+01   6.4713247e-03
 -1.3484409e+00   7.7464469e-02
 -4.9795308e+00   9.3036648e-03
  7.1008307e-01   5.3709324e-02
  3.5947890e+00   4.0280048e-02
  4.3165393e+00   6.1819114e-04
 -1.1243539e+01   2.8801447e-02
 -1.2600827e+00   5.6615803e-02
  1.3880267e+00   5.2448018e-03
 -2.8234143e+00   9.1282157e-03
  5.1335323e-01   5.4977130e-02
  1.5594816e+00   1.7475335e-02
  7.9095322e-01   4.2486340e-02
  1.5484005e+00   1.4221987e-03
 -4.0575171e-01   1.0000000e-01
  9.2843218e+00   3.5377329e-03
  2.0280697e+00   1.0377570e-02
  4.0740056e+00   4.0407456e-03
 -1.1259439e+00   2.4056626e-02
 -1.4509684e+00   6.9326878e-02
 -9.3975288e-01   2.4975052e-02
 -2.0967305e-01   2.2290405e-03
  1.0838008e+00   4.1861802e-02
  6.5487486e-01   2.0395847e-02
  2.3909892e-01   9.5659390e-04
 -2.9568672e-01   5.6067579e-03
  1.1282961e+00   7.7230055e-03
 -5.6792936e+00   4.9827471e-03
 -2.1602668e-01   6.7134336e-02
 -1.4908696e+00   2.7408520e-02
  2.8714206e+00   9.6453555e-02
  2.6785824e+00   8.4676199e-02
 -1.8633667e+00   8.1618778e-02
 -3.6231604e+00   9.4360829e-04
 -3.7510693e+00   5.8815749e-03
 -1.2651399e+00   2.7358509e-03
 -4.6656737e-01   2.3613842e-02
 -8.4141636e-01   3.1604173e-03
  2.9451237e+00   3.9581605e-03
 -2.5413406e+00   8.4932719e-04
 -3.2174010e+00   2.7357987e-03
  2.0509036e+00   8.5454561e-02
  2.8241040e-02   4.1699830e-02
 -2.1662714e+00   9.5705040e-02
 -3.2625401e+00   6.5602902e-03
 -1.4888175e+00   6.9113247e-02
 -3.4870708e+00   3.1565966e-03
  2.6669853e+00   1.6012377e-03
 -4.3245974e+00   2.2420172e-02
 -3.3710711e+00   6.9917175e-03
 -1.0981838e+01   7.0971041e-04
  4.1479168e+00   6.8395813e-03
  2.8001568e+00   5.5376481e-02
  4.3657770e+00   1.0013902e-03
 -1.6851923e+00   4.6832982e-02
  1.4723868e+00   3.3767424e-03
 -1.7602619e+00   2.5251540e-04
  4.8836293e+00   4.0695585e-02
 -1.9519821e+00   1.5966418e-05
  2.4316652e+00   4.0959385e-03
  4.2977967e+00   1.7024560e-02
  1.6300574e-01   4.0459260e-02
  6.9313145e+00   9.0139464e-04
  8.0909818e-01   6.1482456e-02
 -1.2773207e+00   1.6138126e-03
 -1.2652290e+00   4.2906050e-02
 -1.1773838e+00   3.2968085e-02
 -2.7294786e+00   5.5053219e-02
 -6.7427444e-01   7.7734105e-02
 -4.0696940e+00   2.6805862e-04
 -6.2725639e+00   1.8196121e-03
 -3.5274971e+00   1.2680590e-03
 -1.4894134e+01   2.0160272e-03
 -8.4528393e-01   2.1906937e-02
 -4.6021361e+00   1.7439328e-02
  4.0823884e+00   5.0917458e-02
  3.5652885e+00   4.1090347e-02
 -1.1205246e+00   6.9364189e-04
 -4.8826947e+00   1.9820912e-02
  6.8651509e+00   7.6326163e-04
  3.4256268e+00   8.1038075e-03
  1.6955726e-01   9.8040491e-02
  9.9686748e-01   6.9450594e-02
  2.7616518e-02   1.7133765e-02
 -9.2586744e-01   5.5301706e-03
 -7.4136221e-01   2.3463382e-03
  1.7553055e+00   5.4812287e-03
 -5.2726240e+00   4.0918910e-03
  1.2752844e-01   7.2170928e-02
 -1.2851077e+00   8.8585429e-02
 -6.3772821e-01   9.5755756e-03
  7.2323174e+00   3.5668653e-02
 -6.1653090e+00   9.8384053e-02
 -4.3959469e-01   1.1811224e-02
  1.3900852e+00   7.2227847e-03
  1.7610368e+00   9.6173929e-03
  2.5545969e+00   8.6804078e-04
 -5.5360060e+00   2.2433842e-02
  6.9177213e+00   7.6249205e-03
  5.3534684e+00   3.7303850e-02
 -2.9031903e-01   1.9685926e-02
 -1.0505722e+00   8.2700159e-03
 -1.2796197e+00   9.9820986e-02
 -6.6062341e+00   2.7341364e-02
  7.0768232e+00   1.4861003e-02
  4.6863432e+00   1.7754041e-02
  2.3259454e+00   4.4616092e-02
 -4.3179073e+00   1.6329538e-02
 -3.6407897e-01   6.4989567e-02
  6.1162138e-01   2.8977923e-02
 -2.5026865e+00   1.2415597e-03
 -2.0352292e-01   2.8673131e-02
 -4.3802724e+00   1.8520651e-03
  8.7309569e-02   2.6725722e-02
  1.5843897e-01   9.0292364e-02
  5.2929883e+00   1.1542123e-04
 -7.9468894e+00   1.4574929e-02
 -7.1772212e-01   5.5395041e-02
 -8.9319116e-01   3.7913087e-03
 -7.0839971e-02   6.9469092e-03
 -3.0361428e+00   1.1230769e-02
 -2.1534712e+00   1.8279532e-02
  3.4169910e+00   4.6142084e-03
  5.6333208e+00   6.8864068e-03
 -3.4382875e+00   9.1724776e-02
  9.3860751e-01   2.0600559e-02
 -5.7055569e-01   2.6371942e-03
 -2.3804252e+00   3.2465804e-02
  9.9810892e-01   3.2397488e-03
 -3.5531316e+00   8.0767786e-03
  4.0754147e+00   9.9104028e-03
 -1.9316351e+00   1.0117241e-02
  5.2534080e+00   2.4567897e-02
  5.1130587e-01   2.2978354e-03
  5.1511019e-01   9.9143945e-02
 -1.7261405e+00   5.5284377e-02
 -3.2083082e+00   3.0648675e-02
  2.9144368e+00   8.5246786e-05
  1.8355691e+00   5.4867730e-02
 -2.2037160e+00   1.3142026e-02
  3.5295343e+00   7.9786420e-02
 -2.1702707e+00   2.5483477e-03
  3.0890315e+00   4.1949101e-02
 -7.6182449e-01   2.6380446e-02
  4.8398736e-01   8.4456794e-02
 -4.1526353e-01   8.0603473e-02
  3.5343528e+00   6.5593596e-04
 -7.2646946e-02   1.1697483e-02
 -1.2928021e-01   3.4714509e-02
 -3.2240317e+00   3.7047390e-03
  5.2765718e+00   7.8534067e-02
 -1.3405172e+00   1.6018564e-02
 -1.9998788e+00   4.7246233e-02
  2.1664219e+00   9.5574550e-02
  1.9742081e+00   9.0665385e-02
  3.6612802e+00   6.0641058e-02
 -4.4106048e-01   6.8319581e-02
 -1.5203602e+00   6.8816803e-02
  1.0371123e-01   2.1902731e-02
  2.7630159e-01   1.1521961e-03
 -4.0518069e+00   5.5310819e-02
  2.1604195e-01   9.2712371e-03
 -8.1555862e+00   3.2814781e-04
 -3.5961964e+00   1.2344814e-02
 -8.5233182e-01   1.6538144e-05
 -6.2590752e+00   8.5867131e-03
  1.0176133e+01   1.4902407e-03
 -1.4534051e+00   4.8911843e-02
  2.0433254e+00   2.0903493e-03
 -1.1454726e+00   2.1359453e-03
  2.6175036e+00   6.4890077e-03
 -5.8440180e+00   9.1444505e-03
  3.0891991e-01   9.0912208e-02
  1.6693383e+00   3.2516330e-02
 -5.1539475e-01   2.4357598e-02
 -1.1697980e+00   1.1947003e-02
  4.5729151e+00   4.1295172e-04
 -2.7705196e-01   1.1023464e-02
  2.2492640e+00   4.4223643e-03
 -3.1219008e+00   2.7040288e-02
 -3.3534062e-01   8.4851101e-02
  1.6036694e+00   6.1713671e-03
 -7.7850157e-01   2.2335840e-02
 -2.2978165e+00   3.4013100e-02
 -1.1813622e+00   4.3957613e-02
  7.6459676e-01   2.1099446e-02
 -4.5006704e+00   4.8351791e-03
  1.8695319e+00   2.7041915e-03
  4.8527363e-01   3.3708045e-03
 -2.1507249e+00   2.4272362e-02
 -2.0129670e-01   1.1938872e-02
 -5.4675264e+00   3.0959316e-03
  3.2761719e+00   7.0733661e-03
  6.6178288e+00   1.3916725e-03
  7.5248957e-01   3.5942994e-02
  2.3919332e+00   6.1282227e-03
 -4.3248296e+00   9.3746139e-03
  6.4890289e-01   8.9475386e-02
  4.6221347e+00   3.0288469e-02
 -2.6367943e+00   6.7798890e-02
 -2.3324337e+00   3.4449041e-02
 -6.7225403e-01   4.1999478e-02
  3.3024361e+00   2.0072681e-03
 -4.2767218e-01   2.9675320e-02
  6.9574728e+00   3.7570924e-03
  8.4552270e-01   9.8269898e-04
  8.2133228e-01   1.3827284e-02
 -1.9152750e+00   2.4619136e-02
 -6.6961451e+00   9.8071486e-02
 -8.3768606e-01   1.0116195e-02
  3.3132735e-01   2.5442669e-02
 -1.1074243e+00   8.3512269e-02
 -2.4946599e+00   5.2896511e-02
  6.8314469e-01   2.8107896e-02
  9.6045375e-01   4.7260504e-03
  1.9993608e+00   4.0037320e-03
 -1.3022372e+00   2.1739419e-04
  6.6206801e-01   6.6716596e-02
  4.3775803e-01   1.7617585e-02
 -2.9563942e+00   3.6542270e-02
  4.3912430e+00   6.3700951e-03
  4.1083970e+00   9.8558836e-02
  4.6136472e-02   1.9546889e-02
 -4.6119566e+00   1.6967390e-02
 -3.1130683e+00   7.8001376e-03
  1.9481508e+00   4.8238009e-02
  2.7754748e+00   3.7751902e-02
  5.2651858e-01   4.2588569e-02
 -3.8151262e+00   2.9601913e-05
 -3.7867537e-01   9.1752298e-03
 -1.4117658e+00   9.7202875e-02
  2.5469654e+00   3.6175963e-03
  1.1387178e-01   3.3995803e-02
  9.2535412e-01   9.5626172e-03
  1.0582807e+00   1.9638649e-04
  5.5908775e+00   1.1259162e-02
 -3.8849421e+00   1.3831654e-04
  4.6439443e+00   3.8519236e-03
 -3.2967446e+00   1.8378919e-03
  4.1772264e-01   9.0033526e-04
  5.8267641e-01   6.5466844e-02
 -3.4859931e-01   3.9744400e-03
  1.4283891e-01   1.7223597e-02
 -3.9447811e+00   5.4670116e-03
  3.0366664e+00   4.3818954e-02
 -3.8870733e+00   2.9906491e-04
  1.4925678e+00   3.7214980e-02
 -2.0741906e-02   4.5162279e-02
  3.5853755e+00   1.6533772e-02
 -5.6809503e-01   9.9594835e-03
  3.9717063e-02   2.5440643e-03
  4.0735426e+00   3.0336520e-02
  1.0032548e+00   2.1503180e-02
 -2.6014979e+00   1.6592493e-02
  7.6662654e-01   1.2002381e-04
 -1.0493150e+00   7.1535692e-02
  2.2659376e+00   1.7059478e-04
 -2.2802465e+00   5.2791130e-02
 -6.3391461e+00   6.8276399e-03
 -1.3309342e+00   9.0929009e-02
  5.7670695e-01   6.8486199e-02
 -2.5111115e-01   5.4823212e-02
  4.5466499e+00   1.2767257e-02
  1.5608208e+00   7.3146433e-02
 -1.2393352e+00   4.9560373e-03
  1.4103363e-01   5.0097093e-04
 -1.8338186e-01   2.9034372e-03
  3.4976348e-01   5.2170061e-02
  3.4835058e-01   6.2056963e-04
 -3.9687521e+00   1.6710830e-04
  5.7889218e+00   9.6132327e-04
  8.5198438e-01   8.2750045e-02
 -1.2469546e+00   4.4955127e-03
  5.1946896e-01   4.8932191e-02
  6.7621794e+00   3.0385214e-03
 -2.1566143e+00   9.2345245e-02
 -7.6352787e+00   8.9959949e-03
  2.2338955e+00   4.1734587e-02
  2.5773151e+00   8.4255105e-03
  4.4344673e+00   8.8778801e-02
 -3.8751040e+00   9.9021057e-03
 -5.7010198e+00   5.3588874e-03
 -2.6171973e+00   5.6750170e-05
 -1.2019485e+00   2.0151557e-03
  9.5982170e-01   1.5981669e-02
 -6.5695995e-01   7.4737039e-03
 -3.2051346e+00   3.1736598e-04
 -3.6113431e+00   4.7575352e-03
 -4.8139186e+00   2.9151781e-02
 -2.8775632e+00   3.4998385e-03
 -1.1230719e+00   6.4702682e-02
 -1.9781986e+00   2.7445087e-03
  8.0428189e-01   4.5089204e-02
  6.1828947e+00   6.7979530e-03
 -3.0047140e+00   5.2009951e-02
  5.2510653e+00   6.7722490e-03
 -4.4180655e+00   4.5066945e-02
  5.9834349e-01   9.8551162e-02
 -1.0815907e+01   1.3136302e-02
 -8.0435640e-01   7.4745595e-02
  1.3567995e+00   3.7612867e-02
 -3.9488943e+00   6.6336473e-03
  5.1684755e-01   9.1240928e-02
 -1.3232870e+01   4.2626439e-03
  6.4416037e+00   7.2463113e-03
  2.1460187e+00   1.8685225e-02
  9.7521919e-01   4.4498439e-03
 -1.0109689e+00   3.4385871e-02
 -1.2933645e+00   2.7580464e-02
 -7.4374032e-01   8.3246000e-02
 -2.8258331e+00   1.1193689e-02
  2.2290285e+00   3.0303113e-03
 -5.9796613e-01   3.9861348e-04
 -4.1531655e-01   3.4831110e-02
 -3.1394651e+00   1.5137953e-02
 -1.7702540e+00   7.8813612e-02
  7.1788925e-01   4.9683470e-02
  9.8511286e+00   2.2462721e-03
 -1.9403186e+00   4.5937806e-02
 -4.9187422e+00   2.9534644e-02
  1.0428605e-01   6.7386250e-03
 -7.9465961e-01   1.1778076e-02
 -2.1867683e+00   7.9495795e-02
 -3.1448784e+00   5.3723570e-04
 -4.7254953e+00   2.1261082e-03
 -6.1641622e-01   9.9137910e-02
  5.8703586e-02   7.5583309e-02
  1.2910362e+00   8.2233073e-03
 -1.3520610e+00   4.5796137e-02
 -5.3276725e+00   2.9191603e-03
  1.7690417e+00   4.3786418e-02
 -6.9706619e-01   5.1171607e-03
  5.4681075e-01   8.6402357e-02
  3.3119848e+00   2.3369469e-02
  7.0137463e+00   1.6303185e-02
  3.5586979e+00   1.6589180e-02
  6.4226060e+00   1.3548008e-02