  1.0590373e+00   3.5885103e-02
 -9.4056517e-01   5.5366403e-05
 -6.7250261e+00   7.9009039e-03
  4.8703556e+00   2.9152182e-03
 -5.2036843e+00   1.3721031e-03
  4.8739025e-01   3.5040520e-02
 -2.2491293e-01   5.6110267e-02
  8.5624844e-01   7.9378426e-02
 -3.6944935e+00   1.5350485e-02
  1.4806221e+00   2.5718538e-03
 -3.7795143e+00   2.2142390e-02
  3.0062175e-01   1.4817283e-02
 -1.1225543e+00   1.7677488e-02
  3.0795950e-01   2.1377342e-02
 -2.6263585e+00   3.6188522e-03
 -3.0850813e+00   3.4128120e-03
 -9.0969509e-01   4.5935940e-02
  2.2358483e-01   2.1105933e-03
 -1.8332815e+00   1.8275183e-03
  1.3294989e+00   3.4325221e-04
  1.1037209e+00   6.4092088e-03
  1.0932400e+00   4.5848652e-04
 -2.6539236e-02   1.4530951e-03
 -4.6629113e-01   3.6575535e-04
 -1.0076671e+00   1.6675807e-05
  1.8304777e-01   3.5311174e-02
  1.4436475e+00   3.8114877e-03
  1.7831324e+00   1.6687518e-02
 -1.3313414e+00   9.8311260e-02
 -1.7469212e-01   3.5145560e-03
 -9.6430600e-02   7.1413293e-03
 -9.5429391e-02   1.9702096e-02
  4.9489218e-01   2.7383151e-02
  6.3803506e-01   3.6651241e-03
  1.8024920e+00   1.7128186e-02
 -6.2506759e-01   1.5202780e-02
 -3.0036860e+00   2.2749580e-03
  1.9525315e+00   4.6467114e-02
 -3.4705693e-01   5.3623882e-03
 -2.4227747e-01   1.7465374e-02
  1.3684358e+01   2.3703617e-03
 -8.5798478e-01   2.4212325e-02
  3.1389470e+00   8.8172378e-03
 -2.7437916e-01   5.8966357e-02
  2.4413328e+00   4.3100910e-05
 -3.0840690e+00   2.2897065e-04
 -3.0545264e-01   1.9747827e-02
  9.0344447e-01   4.1280545e-02
 -2.0881541e+00   2.2533310e-03
 -3.7166688e+00   9.3036676e-03
 -4.1096765e-01   7.8797303e-03
 -6.8523663e-01   2.3918383e-02
 -1.3821294e+00   2.7731869e-02
 -5.9151893e+00   4.9866590e-04
 -1.6549903e+00   5.3829968e-04
 -6.8468614e+00   3.2951294e-03
 -7.5990185e-02   2.2704886e-02
  2.5119451e-01   1.3614526e-02
 -7.1829087e-01   1.7790491e-02
  1.6071745e+00   2.2541380e-03
 -3.1317103e+00   2.7002563e-04
  1.4362329e-01   3.3911373e-04
 -4.0204902e+00   7.8599770e-03
  3.0178564e+00   2.0048385e-03
  4.2960873e-01   9.5114863e-04
 -9.8625350e-01   1.0521257e-02
 -2.7151906e+00   6.8596490e-03
 -1.6997107e+00   7.9667872e-05
  3.0335701e-01   1.4840288e-05
  1.1582575e+00   3.3298489e-03
 -6.1174566e-01   1.2657963e-02
  8.4658890e+00   4.3185297e-02
 -3.0145428e-01   5.0168611e-02
  5.2982364e+00   8.4825801e-03
  2.8666341e-01   1.9232268e-02
 -1.7359577e+00   2.1930806e-02
 -3.5088077e-01   4.5136153e-06
  9.4638377e-02   1.8962766e-03
 -6.3520446e+00   4.4018663e-03
 -1.5984218e+00   3.1590532e-04
  4.6947482e-01   8.6782710e-04
  1.8740118e-01   2.8657859e-02
  1.8514713e+00   4.3261610e-02
  2.0115635e+00   2.1631112e-03
 -3.1637523e-01   2.5268747e-02
 -1.4464014e+00   3.5990917e-03
  3.2095793e-01   1.0933314e-02
 -5.7521372e+00   5.9787963e-02
  1.2548325e+00   2.1246430e-02
  2.4336855e+00   3.2676756e-02
 -2.3998888e+00   2.3955647e-02
 -4.0073986e+00   1.0758163e-02
 -6.6501045e-01   1.1617448e-02
  7.0176727e-01   1.0094903e-02
  1.9252044e+00   9.5813198e-04
 -3.5434585e+00   1.4004381e-02
 -3.3652775e+00   2.7821254e-04
  2.4335558e+00   1.8836118e-04
 -1.1427797e+00   1.8454599e-03
 -2.9507107e-01   1.9133347e-05
 -5.3783150e+00   3.8925929e-03
 -3.8820424e+00   3.1017743e-03
  8.2913059e-01   3.8138371e-02
  2.2542322e+00   2.1857711e-02
 -3.2186857e-01   3.2430936e-02
 -1.5775622e-01   8.6935543e-02
  1.1731101e-01   3.4747664e-03
 -4.6896973e+00   1.1117255e-02
  2.2355459e+00   5.8396487e-03
  6.5808934e-01   9.7609416e-04
 -2.1262197e+00   2.8685611e-02
  6.6767591e-01   2.3553256e-02
  5.7482576e-01   1.2446077e-02
  4.6183208e-01   8.9291378e-04
 -1.9080005e+00   4.2146761e-03
  3.3449652e+00   1.9863248e-02
  9.5860033e+00   1.4973877e-04
  1.5937957e-01   1.5490136e-02
 -1.5646569e+00   5.3189822e-02
  1.4131081e+00   4.2009905e-02
  5.5211248e+00   6.7989604e-04
 -2.1636558e-01   1.1123364e-02
 -3.1464591e+00   1.6681344e-03
  6.0666755e-02   9.9526963e-04
 -1.5600049e+00   4.2069413e-02
  4.2637181e+00   2.8263447e-03
  2.8668768e+00   3.6285199e-02
  1.8748188e+00   5.1601436e-02
  8.4517527e-01   3.4792532e-04
  2.2792111e-01   3.5210866e-02
 -2.0496459e+00   9.8187011e-04
  9.6719325e-01   1.6630507e-03
  1.0122402e-01   3.8467653e-02
  6.6174002e+00   1.5622065e-04
 -1.5273411e+00   6.2600942e-03
 -1.5283018e+00   7.7545401e-03
  4.6232411e-01   9.5393501e-02
 -8.8512146e-01   4.0796772e-03
 -3.2790637e-01   2.0885266e-02
  1.9962910e+00   5.8855796e-03
  4.4878852e-01   2.5976431e-03
 -1.6810457e+00   5.7544388e-02
 -7.5779617e-01   2.3329744e-02
 -3.2679144e-01   2.3409280e-03
 -8.3549051e+00   3.3860299e-04
 -1.6641141e+00   7.0344009e-02
  7.6928992e+00   1.6250330e-03
 -1.8351055e+00   3.6292251e-02
  8.9584726e-01   5.4245804e-02
 -1.4129567e-01   6.6312037e-02
 -7.2252959e-01   2.5733165e-02
 -2.4885640e+00   6.0097896e-05
 -1.4378892e+00   5.8056647e-04
  8.0940485e+00   8.3929691e-03
 -3.6373398e-01   2.2330094e-02
 -6.5182390e+00   9.5161733e-05
  2.9189680e+00   8.9133680e-03
 -9.1463959e-01   1.0390416e-02
 -6.2973647e+00   2.3174495e-02
 -5.0322251e+00   1.9458918e-03
 -1.5918526e-01   6.8237223e-02
  2.1641637e-01   5.3439029e-02
 -3.3401959e+00   1.3824571e-02
 -6.0735106e-01   7.6999255e-03
  6.6002630e-02   2.1702053e-02
  2.0130908e+00   2.6859039e-02
 -9.1148168e-01   9.9289408e-03
 -1.7033532e+00   1.2976913e-02
 -9.6856632e+00   1.4898925e-04
  1.1757975e+00   6.8437485e-03
 -6.2690110e+00   2.4550743e-03
  4.9900126e-01   1.6800621e-04
  5.9406724e+00   9.4491309e-03
 -2.1797678e+00   5.2918243e-05
  4.6208358e+00   1.4251191e-04
 -4.4114747e+00   1.0716858e-04
 -6.0331454e+00   1.4970091e-02
 -4.9018984e+00   3.5527849e-03
  6.9091040e-01   7.1645388e-03
 -8.8862877e+00   6.9887978e-03
  2.5873349e+00   1.1034067e-02
 -2.6128962e+00   1.6126826e-02
  5.1281085e+00   2.1790159e-03
 -1.3147254e-02   1.6106818e-02
  1.1721445e+00   6.8491571e-02
 -1.3298401e-01   6.6787382e-03
  1.8572928e+00   5.5474049e-04
 -1.2813814e+00   4.1475609e-02
  3.9482086e+00   1.5001077e-02
  1.6532530e+00   7.4609220e-02
 -6.5119672e-01   1.7795445e-04
 -5.1978011e+00   2.0158906e-03
 -2.4519567e+00   1.3585028e-02
  4.8114032e-01   2.7651287e-04
  1.2340658e+00   8.6273113e-03
  2.6914227e+00   2.4426877e-02
 -1.3611125e+00   6.6045851e-02
  4.1854224e+00   3.1290986e-02
 -5.4742861e-01   1.5937449e-02
  4.1407094e+00   5.9177233e-03
 -1.1232188e-01   5.3473443e-02
 -1.0171938e+01   1.1642035e-03
 -5.0784698e+00   9.7803806e-04
  4.7947125e+00   1.1215099e-03
  7.1647434e+00   1.6926937e-02
 -5.1247951e-02   1.5379647e-02
 -4.3482199e-01   4.7981098e-02
  2.9968536e+00   1.0106332e-04
 -1.6220237e+00   3.0936603e-02
 -8.9549422e-01   3.3669146e-03
  1.5504194e+00   1.8520154e-02
  2.9813707e+00   1.9651856e-03
  3.9020443e+00   4.3585937e-04
  4.2559972e+00   3.9326478e-04
  5.0878363e+00   1.1275080e-03
 -9.2770082e-01   1.3869732e-02
  1.9398526e+00   5.6038229e-03
 -5.7102923e+00   1.3456038e-03
  4.1208658e-02   9.1522076e-04
  8.4653497e-01   2.4968492e-02
 -2.9700377e+00   3.2222632e-04
 -1.0192649e+00   2.7139571e-03
 -6.8273790e-02   1.6941821e-02
  1.3522681e+00   6.2447745e-02
 -1.9925378e-01   1.8875722e-02
 -1.2909753e+00   3.2034606e-02
  2.9578738e+00   4.9834554e-05
 -8.1339121e+00   8.0846408e-03
 -1.7274120e+00   3.2808173e-02
  1.0511032e-01   5.0054841e-05
 -6.1004729e+00   2.5812560e-04
 -2.2667240e-01   1.3898830e-03
 -1.7283192e-01   2.8190497e-04
 -1.5568883e+00   1.0206524e-02
  3.7150320e-01   1.6085098e-02
 -1.0040445e-02   3.3646580e-02
  1.4565806e+00   4.7939001e-03
 -1.4974459e+01   8.1295596e-04
 -6.9117174e+00   4.1315258e-03
  6.0282820e-01   1.4658978e-04
  4.4077849e-01   4.2704022e-03
 -2.6169465e+00   1.0844517e-02
  3.9326291e+00   1.6761478e-03
 -2.3159597e+00   5.5209193e-02
 -1.2468434e-01   2.9721541e-02
 -5.4884517e-01   2.0869051e-03
 -1.6649292e+00   8.2107092e-04
  6.9209033e-01   4.0112413e-03
  6.3952357e-01   1.3275944e-02
  1.7552086e+00   1.0300983e-02
  2.2408710e+00   8.2683034e-04
  1.2556163e+00   1.8627554e-03
  1.1892997e+00   7.8751691e-02
  2.2683129e+00   2.2364669e-02
 -6.4909764e-02   1.4274042e-02
  4.4480309e-01   4.5333050e-02
  1.0814862e+00   6.9397740e-02
  6.8626171e-01   2.2350861e-04
  4.7324777e+00   5.3511059e-04
 -6.5092778e-01   4.3839004e-02
 -5.2050149e-01   8.4485039e-02
 -9.7481804e+00   1.0348728e-04
 -3.4633954e+00   1.5297312e-03
 -3.2696741e+00   2.2549563e-04
 -1.4670296e-01   1.9551177e-02
  2.2194395e+00   1.3280123e-02
 -1.9124240e+00   2.2396579e-02
 -7.4423796e-01   4.3468859e-02
 -2.2491314e+00   1.6560361e-03
  9.6247995e-01   6.0513280e-03
  6.7003006e-01   2.8195102e-02
 -4.6615767e+00   3.9948863e-03
 -2.0661198e-01   1.2218301e-02
  6.8979636e-02   7.2049565e-04
 -8.2479548e-01   1.8680692e-02
 -6.3714466e+00   1.5604731e-03
 -1.0121037e+00   1.1664506e-03
  1.4503952e+00   4.5623388e-02
 -7.5565162e+00   1.6433747e-03
 -7.7756381e-01   7.0447020e-02
  1.1727468e+00   1.9178290e-03
  3.4473542e-02   9.1428896e-03
 -3.9569242e+00   2.4583488e-04
 -6.5818864e-01   1.2306497e-03
 -1.6003194e+00   1.1597082e-03
 -2.7363198e+00   6.3000130e-03
 -2.2619209e+00   7.5018761e-04
 -3.5383985e+00   3.3625871e-02
  2.8520679e+00   1.4464232e-02
 -2.2032113e+00   1.5807802e-02
  2.7530189e+00   1.1933357e-02
  4.9074607e+00   3.4556794e-03
 -2.3149399e-01   7.2733364e-03
  4.4425297e-01   1.3566807e-02
  1.6775109e+00   7.6812305e-02
  2.2778960e-01   2.3971122e-02
  9.4110131e-01   2.9790567e-02
  1.3071719e+00   1.3868059e-03
 -6.1602779e-02   2.9510083e-02
 -1.1813559e-01   1.2767139e-02
 -3.1739512e-01   2.9074971e-02
 -6.1790884e-01   4.6280590e-03
  7.3947697e+00   9.0600271e-03
 -3.1323147e-01   1.9885583e-02
 -1.2316275e+00   1.5899738e-02
 -6.7802399e-01   1.6907074e-02
 -2.7095449e+00   3.0356461e-05
 -6.6389364e-01   3.5346317e-04
  4.2407468e-01   1.0567207e-02
  1.2119384e+00   1.4888667e-02
  4.2255187e+00   3.4910736e-03
 -3.3807045e-01   5.2835763e-02
 -7.0223320e-01   6.7448981e-02
  4.1280371e-01   1.7488406e-03
  1.6674888e+00   1.4941990e-04
 -3.2872586e+00   5.2787564e-03
 -1.6993439e+00   2.6955605e-03
 -2.0499947e+00   7.2034672e-02
  2.2438867e+00   8.4529325e-02
 -1.1837107e+00   4.0436778e-02
 -4.2728785e-01   2.2088180e-04
 -4.9180588e-01   1.6909003e-03
 -1.2478009e+00   1.4914679e-02
  4.3507159e-01   6.5397136e-02
 -6.2427454e+00   3.2643654e-04
 -2.4698931e-01   9.2536686e-03
 -1.3257313e+00   4.1176595e-02
  1.0882621e+00   4.6411060e-02
  2.1040773e+00   7.8504026e-04
 -1.0709939e+00   3.1905066e-02
  2.0662091e+00   3.9435837e-02
  4.1085228e-01   4.5848444e-02
  1.3418051e+00   6.0346830e-03
 -5.5598307e+00   2.0637454e-02
 -4.5575133e-01   7.4062407e-02
 -1.3577944e+00   2.4083410e-04
 -1.2342602e+00   2.7569130e-02
 -7.5801545e-01   6.4432076e-03
 -2.1765354e+00   1.0224447e-02
  6.8214846e+00   8.1850849e-03
  1.8543458e-01   7.6322213e-02
  3.5940778e+00   7.4807840e-04
  5.6124800e-01   8.4455937e-02
 -6.6605434e-02   1.5194395e-02
  1.8144212e+00   9.1414176e-02
  3.3337176e-01   4.5673370e-02
 -1.0360478e+00   2.6966844e-02
  5.4074276e-02   9.1460340e-02
  5.4290414e+00   1.1743277e-03
  4.3816787e-01   8.8414447e-03
  1.3332525e+00   4.0901345e-03
  1.3602184e-01   1.3353487e-02
  8.3902335e-01   1.0462750e-02
 -2.6380150e+00   1.9106513e-03
 -3.1103386e-02   6.8523898e-03
  4.1207929e+00   8.4923189e-03
  7.4539456e+00   2.1640777e-03
 -1.1890850e+00   1.8727173e-03
 -3.5634854e-01   8.8388696e-03
 -3.9852056e-01   3.3855837e-02
  1.4429312e-02   2.7916493e-02
  1.0919255e+00   8.4585823e-02
  1.1557461e+00   7.3798648e-03
 -2.0591328e+00   1.3051056e-03
 -7.6057510e+00   6.3597522e-04
 -1.7196063e+00   1.1282099e-02
 -3.9159641e+00   4.1582412e-03
  9.1034904e-02   5.4864939e-02
 -2.5267822e-01   9.5693178e-02
 -1.6590980e+00   7.0790458e-03
  1.8471967e-01   2.4842888e-03
 -1.0323001e+00   5.7206701e-02
  1.7216642e+00   6.8719879e-02
  2.8248165e+00   1.1860288e-03
  1.5739279e+00   9.8687425e-02
  9.6320111e-01   2.1989316e-04
  1.1766093e+00   3.3925578e-02
 -2.6441598e+00   6.1645643e-03
 -4.9550376e+00   3.3570683e-04
 -3.3388648e+00   6.0409389e-04
  1.5054661e-01   3.5956766e-02
 -7.8765554e+00   4.3050468e-02
 -4.9017086e+00   2.7062199e-03
  3.1544991e+00   1.9775541e-02
 -3.7694330e+00   4.5027356e-03
  8.1786805e-01   2.3165293e-02
  4.4684143e+00   1.3646699e-02
 -5.0495720e-01   1.4422473e-02
  1.7111293e+00   1.2948473e-02
 -4.1203910e-01   7.5873621e-02
  3.5370150e+00   1.1146065e-02
 -3.8980871e-01   5.8010213e-02
 -2.0856369e+00   1.0741062e-03
  4.5295039e-01   7.5015716e-02
 -2.2382054e+00   1.4776909e-03
 -9.0004492e-01   7.4642204e-04
 -9.3743302e-02   1.2670463e-02
  9.8346096e-01   8.3635288e-04
 -1.0443124e+00   2.2237038e-03
  2.7454255e+00   6.6131894e-03
  3.8919531e-02   7.0973765e-03
 -2.4418137e+00   4.5666499e-03
 -1.3597649e+00   1.2948321e-02
  4.1086354e+00   9.4660092e-03
 -2.5519395e-01   3.6014389e-02
  1.9198467e+00   7.9295442e-02
 -5.2296299e-01   4.5877069e-02
  5.0251212e-02   8.7853698e-03
  4.8490586e+00   8.3349849e-05
 -4.8232147e-01   8.1948433e-03
  5.8314979e-01   1.2505142e-02
 -7.8892863e-01   1.1427525e-04
 -3.6524534e+00   5.6575530e-04
  4.3963498e-01   7.4485275e-03
 -9.2068696e-01   2.9488200e-02
 -1.8071482e+00   1.7955749e-04
  8.0085355e-01   3.8465295e-02
 -1.2757843e+00   7.5779660e-03
  2.5321624e-01   4.8739176e-02
  8.6957846e+00   1.5875084e-03
  1.6663767e+00   7.4529938e-02
  1.2728764e+00   3.3646819e-04
 -3.7708879e+00   3.0068707e-04
 -5.3375311e-02   1.0411561e-02
 -7.4756068e-01   4.8350368e-02
  1.3511535e+00   8.6999405e-03
  7.1424246e-01   4.5700292e-03
  1.1069554e+01   7.1935949e-04
 -3.3722690e-01   8.1088888e-03
  6.5909991e+00   7.0845774e-05
  1.7833157e+00   3.2948949e-03
  5.3452802e-01   1.0748910e-02
 -9.0614426e-01   2.5310388e-02
 -3.2328649e+00   1.1761818e-03
  1.8328987e+00   3.4928387e-03
 -9.0057039e+00   2.8973462e-05
 -9.2606239e-02   6.4261267e-03
  2.7474627e-01   1.3985108e-04
 -3.0977887e-01   7.7493894e-03
 -7.3074764e-01   7.8798207e-03
 -5.0419543e-02   1.3205278e-04
 -2.6272377e-01   2.6744451e-02
  5.9988797e-01   4.5855995e-02
  6.8250936e-01   7.3246054e-02
 -1.7228985e+00   1.2991703e-03
  5.4681540e-01   8.0598414e-02
 -2.5489810e+00   6.3984785e-03
  2.1408436e-01   5.1771048e-02
  9.2125678e-01   6.8236940e-02
  1.3185543e+00   1.6111765e-02
  3.6441641e+00   4.1237851e-03
 -7.5399423e-01   1.9446930e-02
  1.4405216e+00   4.0994626e-02
 -2.1486959e+00   1.5621319e-03
  4.0296870e-01   2.1647658e-02
  2.0757318e+00   9.5811626e-03
 -4.5708895e-01   1.0284288e-02
  5.6452131e+00   1.8227879e-03
 -1.8278117e-01   9.6226357e-02
  4.2040839e+00   1.0489922e-02
 -4.6045718e-01   1.3524651e-02
  4.9962202e-01   3.1316303e-02
 -7.8799486e-01   4.7867998e-02
  5.7951752e-03   2.4162259e-02
 -1.1843069e+00   5.6405612e-03
 -2.0184040e-01   3.9957281e-02
 -2.8278596e+00   1.2053873e-03
 -2.8085206e+00   2.6428964e-02
  1.4179510e+00   5.2346792e-03
  1.8158976e+00   4.9162354e-02
 -6.8191683e-01   4.0930387e-02
  1.7615104e+00   1.5404082e-03
  3.4874895e+00   3.4358667e-03
 -1.3045981e+00   2.1044331e-02
 -1.4451756e+00   6.4887037e-04
  4.0895480e-01   7.2849439e-03
 -2.6245072e-01   5.6733582e-02
  5.8798319e-01   3.4705925e-04
 -1.5796859e+00   2.7952245e-03
 -7.6677656e+00   1.0627133e-04
 -1.0324108e-01   6.7860540e-04
 -7.0883107e+00   1.2434014e-02
 -4.4293508e-01   2.6514155e-03
  3.1171570e+00   9.1213768e-04
  1.4709960e+00   3.6274403e-02
  9.3421412e+00   6.5207091e-04
  5.5038261e+00   1.8548112e-03
  1.2060124e-01   3.2225836e-02
  6.9911972e-02   2.5509957e-02
  4.8106127e+00   2.6233264e-04
 -4.2848074e-01   3.3351928e-03
 -1.5432656e+00   1.0171464e-02
 -1.5843821e+00   2.1350088e-02
  3.4940279e-01   3.2416023e-02
 -6.0201079e-01   8.2068460e-04
 -1.0478660e-01   2.1480622e-02
  1.6933092e+00   3.2333709e-02
  1.0968124e+00   2.6687046e-03
  8.6308444e-01   4.6869726e-03
 -3.5588470e-01   4.6551120e-03
 -7.6428461e+00   2.0531397e-03
  1.3638356e+00   4.0279087e-02
  2.2597799e+00   7.8164726e-02
  9.3999781e-02   1.2163591e-02
  4.7717491e-01   1.6550183e-02
  5.8170372e-01   1.5253895e-02
 -4.3731922e-01   2.6344880e-02
  2.9265289e+00   2.5193619e-03
  5.9333283e-01   4.2012720e-03
  3.4250946e+00   2.2763157e-02
  2.5938657e-01   5.8271433e-03
  6.6981459e-01   1.3208392e-02
  4.2590165e+00   1.3379427e-03
  2.4452379e+00   2.3739216e-05
  5.0731721e+00   3.1380961e-03
  1.7895092e+00   2.3146792e-04
  8.5568571e-01   4.5042806e-03
  1.5094002e+00   2.3559589e-02
 -3.4656200e+00   5.5829869e-03
  1.6839480e+00   1.0827964e-02
 -4.1721992e+00   5.8745802e-04
  5.0850642e-01   6.0063605e-03
  1.8050971e+00   5.6451712e-02
  3.8061016e+00   1.3982473e-03
 -6.7935967e-01   1.8469879e-02
  1.4192084e+00   2.5739260e-02
  2.4155515e-01   1.3888143e-02
 -8.4569186e-02   1.6434958e-02
 -8.8521814e-01   4.8478055e-03
  3.3685479e-01   7.0419468e-02
  5.4116821e+00   1.0429068e-02
  2.9463518e+00   2.7128594e-02
 -1.4673150e-01   5.6416824e-02
 -6.3805842e-01   1.8708441e-02
 -1.1131933e+00   9.2425393e-03
 -2.8001204e+00   4.6134075e-05
 -3.5132462e-01   4.2984873e-02
  6.9519982e+00   2.0896287e-03
  7.2041237e-01   4.7536734e-03
  1.2507798e-01   1.3314489e-03
  4.4952946e+00   4.6494589e-03
  7.0863903e-01   3.0431448e-02
  5.1396668e-01   1.6200613e-02
 -1.7652187e+00   1.0761520e-03
  4.2216058e+00   1.5150980e-04
  4.2737732e+00   1.1885430e-02
  3.1993479e-01   2.9606001e-02
  7.4836439e-01   2.1653963e-02
 -1.1461018e+00   7.5591420e-04
  1.3771242e-01   3.6764976e-02
 -2.3666852e+00   1.9882414e-02
 -1.8364539e+00   3.2714347e-03
 -1.7305701e+00   1.8037904e-02
 -1.2103642e+00   8.0535104e-03
  1.6012189e+00   3.3675769e-04
 -1.3068764e+00   9.4682127e-03
 -6.7605639e+00   1.0673585e-04
 -4.4127541e+00   3.5112589e-03
  1.7535005e+00   3.6766988e-03
  5.2534237e+00   7.7222136e-04
 -1.0486622e+00   2.3160610e-02
  6.3920414e-01   4.3856736e-02
  1.0835173e+00   8.7110344e-03
 -1.0970542e+00   3.3416990e-02
 -5.6818624e+00   1.1509084e-02
  1.1844943e+00   4.8899995e-03
  6.1260076e+00   2.8511466e-04
  1.7347299e+00   2.0246869e-02
 -1.6864607e+00   3.1739980e-02
 -2.9900994e+00   5.1853929e-02
  9.1404386e-02   1.8990051e-02
  1.9195122e+00   5.0788760e-02
  1.0906618e+00   2.2250669e-02
 -2.2584047e+00   4.8363172e-02
 -1.3778790e+00   7.7685881e-03
 -3.5018976e+00   3.7784219e-02
 -4.5826364e-01   6.7343195e-03
  4.0827513e+00   5.3129634e-03
  4.4405866e+00   1.7723149e-03
 -6.6264611e-01   3.9087284e-02
  1.7533214e+00   4.8655322e-05
 -4.6158419e+00   1.4859056e-02
  2.7248385e+00   8.8504672e-02
  1.2532579e+00   7.2264550e-03
 -2.2286603e+00   3.3638225e-04
 -1.2543858e+00   1.1437359e-02
 -4.3270925e-01   6.7730762e-02
  2.5224261e+00   3.1007951e-04
  8.6810672e-01   5.9470940e-02
 -1.9419676e-02   2.8465010e-02
 -6.4141536e-01   1.0611099e-02
  7.9574905e-02   2.0085609e-02
 -6.3815182e-01   1.7519642e-03
  3.8520556e-02   1.0220153e-02
  1.1278874e+00   1.5973977e-03
  2.8931156e-01   1.1403604e-02
 -2.7095971e+00   8.2767813e-04
 -4.4173965e+00   2.4583999e-03
  1.0475307e+00   9.8949550e-03
  2.2877126e+00   3.1483267e-02
  1.7986692e+01   2.7080961e-03
  1.5934362e+00   8.9827720e-03
  1.0909910e+00   3.6496677e-02
 -1.2556816e+00   8.0465684e-03
  1.4498108e-02   3.7301149e-02
  4.3450079e+00   1.7876273e-04
 -4.2648837e-01   3.3781643e-03
 -8.5317570e-01   6.2619866e-04
  2.1450894e+00   2.5762236e-02
  1.7504094e-02   9.8931499e-02
 -4.8320255e-01   5.4639440e-02
 -8.6809552e-01   2.1510517e-02
  5.5504662e-01   5.5073574e-03
  1.4774481e+00   1.3480867e-03
  4.6159756e-01   4.8731662e-02
  6.2894201e-01   4.0567543e-02
  1.3030732e+00   3.7431605e-02
  3.5554993e+00   9.3416199e-03
 -8.0839050e-01   2.0641500e-02
 -2.5413616e+00   1.0808053e-02
  2.8638077e+00   6.0147718e-03
 -1.5689482e-01   1.1262499e-04
 -1.5926498e+00   5.9722746e-03
 -1.3596203e+00   7.3315888e-03
  2.3221025e-01   8.9532172e-05
 -3.1974342e-01   1.6508408e-02
  7.9571176e-01   5.2157813e-03
 -4.7929549e+00   5.3363894e-03
  4.2921755e-01   7.5703882e-02
 -9.1803336e-01   2.0322286e-02
 -1.0666744e+00   9.4090566e-02
 -3.1319072e+00   5.6405887e-02
 -5.8052093e-01   2.1311708e-02
 -3.5862613e+00   3.8501807e-05
 -3.6646941e+00   3.0552365e-03
 -1.2317562e+00   7.5912947e-05
  2.5362191e+00   6.8209045e-02
 -8.5972750e-01   5.0007174e-04
  1.5394930e+00   7.7915238e-03
 -2.5813529e+00   1.2813832e-04
 -3.2990918e+00   6.6264381e-04
  6.0575241e-01   5.7185981e-02
  8.7009571e-02   2.2213817e-02
 -6.0407456e-02   7.5344808e-02
 -2.5281420e+00   4.0599937e-03
 -1.1321794e+00   1.7414953e-03
 -3.5560560e+00   1.1646909e-03
  2.6864953e+00   8.0035714e-04
  3.5180163e-01   4.0042982e-03
 -3.1801438e+00   7.8351231e-04
 -1.0981439e+01   2.8597846e-04
  3.4363973e+00   2.1224550e-04
 -5.3461730e-01   2.7576741e-02
  4.4479527e+00   2.9343960e-03
  3.8100365e-01   8.7372446e-03
  1.4536204e+00   8.5113000e-04
 -1.7647806e+00   1.9122708e-05
  3.4357162e+00   1.0420500e-02
 -1.9517047e+00   3.8494377e-06
 -1.0844930e-01   5.2641269e-02
  8.4084660e-01   1.7644539e-02
 -2.2106889e-01   1.7037429e-03
  6.8986754e+00   2.1044703e-04
 -1.5678194e+00   1.3422875e-02
 -1.2065138e+00   4.7140432e-04
  7.8977150e-01   6.3959457e-02
  1.5316711e-01   2.0178081e-02
 -8.5674518e-01   8.2495483e-03
  2.9454503e+00   2.4865681e-02
 -4.0635748e+00   1.4993981e-05
 -5.9914479e+00   6.5667494e-03
 -3.1403477e+00   1.7837089e-03
 -1.4873999e+01   7.3535950e-04
  7.5199205e-01   8.9253627e-02
 -4.6997457e+00   2.6448607e-03
  1.1647609e+00   1.7613340e-02
  1.1800475e+00   3.3855308e-02
 -1.1383880e+00   5.7639234e-05
 -4.2523031e+00   7.2344006e-03
  6.7148657e+00   5.1587570e-04
 -8.6242759e-01   2.8982474e-02
  2.8908179e+00   3.0376520e-03
 -1.3867615e+00   1.1531716e-02
 -5.5172461e-01   1.1999044e-03
 -1.0546440e+00   1.7763834e-02
  5.5392969e-01   3.4589753e-02
  2.0334814e+00   5.1423186e-03
 -3.3195407e+00   1.0293790e-02
 -8.2379448e-01   8.5139431e-02
 -7.5430405e-01   8.0808690e-03
 -1.2311770e+00   4.9460307e-02
  1.7216365e+00   8.5506691e-03
  5.4764591e-02   4.8387963e-03
 -7.3116189e-01   1.2708663e-02
  7.3956108e-01   9.0432009e-03
  7.2394662e-02   2.0314474e-02
  2.5848293e+00   3.5639718e-05
 -2.9320982e+00   5.7727690e-03
 -1.3932055e+00   1.9150389e-02
 -1.4248371e-01   9.1742501e-02
  5.2271664e-01   4.8700767e-03
 -7.5897110e-01   3.1343286e-03
  2.2427764e+00   1.0306285e-02
 -2.3718281e+00   3.8494065e-02
  6.2390637e-01   3.3281796e-02
  1.1792402e+00   1.7356297e-02
  1.7590358e+00   9.5029577e-04
 -2.5180037e+00   6.4264266e-03
  1.7729046e+00   5.5928845e-03
  3.4398503e+00   2.5006555e-02
 -2.6643813e+00   1.5041896e-04
 -1.3194802e+00   4.1943111e-02
 -4.3197021e+00   3.7529764e-03
 -1.6174391e-01   6.3234027e-03
  2.6894692e-01   7.4144773e-02
  5.2925210e+00   8.4165898e-05
 -6.6698454e-02   1.6596753e-02
 -5.6128192e-01   4.2288159e-03
 -4.2334802e-02   3.7999261e-02
 -1.7151110e-01   4.9197119e-05
  3.7927259e-02   7.6317121e-03
  1.4001868e+00   6.8570517e-02
  4.3112702e+00   3.6686068e-04
  5.7677779e+00   5.9163547e-04
 -2.8036220e+00   1.9062076e-02
  1.1736983e+00   6.2506292e-03
 -1.0862722e-01   1.8563325e-02
 -1.8794934e+00   2.8502443e-03
  1.3515176e+00   1.9398012e-03
 -3.6067486e+00   3.4167212e-03
  1.7019780e+00   1.9034458e-02
 -4.2987409e-01   5.9180807e-02
  3.0927527e+00   2.4851016e-03
  6.4091694e-01   2.1144971e-03
  4.9406048e-02   1.4982916e-02
 -2.5460284e+00   1.6451390e-02
 -8.6817533e-01   5.3362645e-02
  2.9368608e+00   9.0985668e-05
  1.7905687e+00   4.2527810e-02
  9.1113269e-01   8.4655263e-02
 -5.7845600e-02   1.8312894e-02
 -2.0852621e+00   3.3917019e-04
  5.0175887e-02   1.0301388e-02
  7.3141146e-01   8.1966884e-02
 -2.7460834e-01   1.3237203e-02
  3.4507671e-01   2.0504057e-02
  3.1750174e+00   1.0913578e-03
 -1.1672025e+00   4.5464103e-04
  5.6124562e-01   1.1410689e-02
 -4.3198586e+00   1.3840563e-02
  5.9988028e-01   7.3835246e-02
 -9.6868294e-01   2.4038325e-03
  1.4124516e+00   3.0488111e-02
  2.1353282e-01   5.8077428e-02
 -2.5349615e+00   2.0422878e-02
 -5.1706922e-01   2.4889356e-02
 -9.8085183e-01   8.8148467e-02
  1.5814921e+00   6.5969029e-03
 -1.6899565e-01   2.4875976e-02
  2.8427202e-01   5.0122260e-05
  9.9533236e-01   7.8432402e-03
 -7.1442217e-01   4.9199075e-02
 -8.2049818e+00   4.3334348e-05
 -2.4147077e+00   3.4820845e-03
 -8.6385292e-01   8.3509600e-05
 -2.4303534e+00   9.7788554e-03
  1.0497602e+01   7.2488491e-03
 -2.1883896e-02   2.0876369e-02
  2.0249426e+00   1.5996138e-04
 -1.0870386e+00   2.0001291e-03
  8.4692165e-02   5.2683549e-03
  2.8189585e-01   1.9100318e-02
  2.0909817e+00   1.6262125e-03
 -4.3030206e-02   1.9138435e-02
 -8.3306301e-01   1.1818417e-02
  4.0572047e-01   5.1794117e-03
  4.2940407e+00   1.1473143e-02
 -1.1451117e+00   7.6984740e-03
  1.9189926e+00   4.6013808e-03
 -4.8646878e-02   2.0086957e-02
 -1.3965842e+00   1.2134738e-02
  7.5063735e-01   9.6350059e-02
  2.1973084e-01   5.5992104e-02
 -1.7078468e-01   3.6155495e-03
  2.7487487e-01   2.0372326e-02
  6.9084686e-01   1.2617724e-03
 -4.6619859e+00   3.5709701e-05
  2.0093527e+00   6.2020721e-05
  1.2217947e+00   1.3051158e-02
 -6.9980258e-01   4.1658329e-04
  2.3663847e-01   1.3421720e-03
 -3.5834160e+00   8.5524103e-04
  2.5632887e+00   1.0672646e-02
 -6.6955310e-01   4.4860736e-02
  2.0970225e+00   8.3600543e-02
  1.6975676e+00   6.9459365e-03
 -4.1274710e+00   5.9971837e-03
  4.5832509e-01   7.1527623e-02
  5.0747991e+00   3.0558717e-03
 -1.4883509e-01   2.0086106e-03
 -1.3684425e+00   6.3619941e-02
 -4.1550878e-01   9.4678886e-02
  6.0812507e-02   4.8830319e-02
 -3.6428547e-01   6.4112619e-02
  6.4516091e+00   1.2888483e-02
  4.9224848e-01   2.1144997e-03
 -7.1319334e-02   2.2983849e-02
  7.4590176e-01   4.8045993e-02
  4.9527764e-01   7.5354464e-02
 -3.9448586e-01   5.9681865e-03
  5.1673567e-01   5.2898660e-02
  1.0776052e+00   8.6808493e-03
 -2.7995172e-03   1.6975466e-02
  8.8476676e-01   6.5608677e-03
  4.5727065e-01   2.2020056e-03
  2.2871418e+00   8.0182363e-04
 -1.4963838e+00   3.1315072e-03
 -7.3939610e-01   3.7241417e-03
  1.4896101e+00   6.8774663e-02
 -1.8778412e+00   2.1547101e-02
  3.0455325e+00   1.1716339e-02
  1.6620559e+00   6.4091086e-02
 -1.2999849e-01   4.5256135e-03
 -4.0638647e+00   2.2716422e-03
  2.7302217e-01   6.0979001e-02
 -4.1881230e-01   5.6997657e-02
  3.0490029e+00   3.7672559e-03
  3.7634663e-02   8.3297387e-02
 -3.8142006e+00   2.7179208e-06
  9.6361302e-02   5.8488944e-03
  7.6954669e-01   1.4322085e-02
  2.5941005e+00   5.0255367e-06
 -5.9271103e-01   2.6928082e-02
  1.4647654e+00   1.5835732e-03
  1.0581796e+00   1.1003561e-04
  9.8018420e-01   6.3016124e-02
 -3.8373041e+00   3.1509210e-04
  4.0142055e+00   2.4877321e-02
 -1.3534408e+00   1.9501431e-02
 -8.9474600e-03   9.5863231e-03
  7.6978356e-01   2.9875935e-04
 -4.3915638e-01   1.7145668e-03
 -1.4653791e-01   2.1265272e-02
 -5.6483567e-01   5.1514613e-03
 -1.7945808e+00   1.1609116e-02
 -3.9126539e+00   2.2827778e-03
 -1.0511300e-01   8.0284148e-02
 -9.6513438e-01   7.7803120e-02
  3.7993526e+00   3.1972013e-03
 -1.0119126e-01   9.9512679e-04
 -6.5319523e-02   1.3209802e-04
  4.8827681e-01   5.5730700e-02
  1.1774962e+00   2.9139062e-03
 -1.4649811e-01   1.5721068e-02
  7.6452321e-01   1.2748131e-05
  5.9442754e+00   1.3914280e-02
  2.4275916e+00   9.9342712e-04
 -6.2097901e-01   5.2304450e-02
 -6.4286065e+00   3.4096292e-03
 -2.1696399e-01   3.1697512e-02
 -1.5671403e+00   5.2450664e-02
  1.3649475e-02   3.6416654e-03
 -3.7428412e-01   2.0073378e-02
 -2.3823759e-01   1.0406784e-02
 -1.0183172e+00   2.4612101e-03
  1.2677160e-01   1.2174137e-04
 -2.8024372e-01   3.1008832e-03
  1.1797341e+00   1.2384961e-02
  3.6967635e-01   1.8534514e-04
 -4.1464663e+00   3.5489716e-03
  5.6682758e+00   2.9045953e-03
  2.2280548e+00   2.3841228e-02
 -1.2005007e+00   7.0384420e-02
 -1.5851965e+00   3.0444531e-02
  6.6996861e+00   2.8627485e-03
  1.1762824e+00   3.1991500e-02
 -6.9859500e+00   7.5539546e-03
  1.4419260e+00   8.8382088e-02
  3.0144501e+00   2.2647819e-03
  2.5728509e-01   2.7377853e-02
 -2.6823153e+00   1.5641230e-03
 -5.4492559e+00   8.8025350e-03
 -2.6136208e+00   7.7683741e-05
  1.3295344e-01   3.1521316e-03
  1.3570592e+00   1.4563183e-02
 -1.0019391e+00   6.9915634e-03
 -3.2193944e+00   1.2709765e-04
  1.7424215e-01   2.8612601e-02
 -1.7379203e-01   5.0722223e-02
 -3.5652978e+00   7.9568233e-03
 -1.5611879e-02   7.9470640e-03
 -2.2186620e+00   5.1236060e-04
  1.3740600e+00   2.8931033e-03
  5.8370595e+00   9.3772775e-03
 -8.2113609e-02   5.1768674e-03
  1.7606758e+00   3.3657197e-02
 -1.1538510e-01   8.4493756e-02
  5.0601430e+00   1.5732653e-02
 -9.0358982e+00   1.0324657e-02
  1.1307507e+00   4.9627209e-03
  9.5234876e-03   1.4225272e-02
 -4.5722375e+00   3.8206733e-03
 -3.9243999e-01   8.6641870e-03
 -8.8725624e+00   3.5493247e-02
  2.6461141e+00   1.8915160e-02
 -4.9295485e-01   4.3956488e-02
  1.5313039e+00   1.7032318e-02
  6.2582299e-02   7.0540146e-03
 -3.4984607e-02   5.8625601e-03
 -3.9959577e-01   6.2768720e-02
 -2.1605904e+00   2.6319867e-02
  2.2348185e+00   1.9195709e-02
 -6.0596240e-01   5.4854248e-05
  7.2762376e-01   6.4528227e-02
  4.1524774e-01   3.0474722e-02
  1.0459501e+00   5.4115810e-02
  6.3241941e-01   3.3024764e-03
  9.9490213e+00   7.5616525e-04
 -3.3233711e-01   3.0979909e-02
 -2.5947360e-02   3.3937510e-02
 -5.2684385e-01   5.7675957e-04
 -1.3200964e+00   6.0873277e-02
  2.0309346e+00   8.5626394e-03
 -3.1457777e+00   7.1613919e-03
 -4.9806805e+00   2.1344055e-04
  2.7691166e+00   3.2151252e-02
 -4.6831813e-01   2.2201540e-02
  3.9286435e-01   4.6393774e-02
  5.4348838e-01   1.7089227e-02
 -1.7442060e+00   3.2777179e-02
  5.4630928e-02   1.9852189e-02
 -1.8781341e+00   1.1115217e-03
 -2.3644398e-01   3.1865817e-02
  3.4740958e-01   1.0618609e-03
  6.7029576e+00   3.5236413e-03
  2.8503897e-02   3.2543987e-02
  1.3004634e+00   7.2193414e-02