 -4.5736799e-01   9.9895298e-02
 -8.1198311e-01   2.0599429e-02
 -6.6679816e+00   9.6386097e-02
  5.0532627e+00   5.8838772e-04
 -5.7475162e+00   5.7706074e-03
  7.2314448e+00   3.7045474e-03
 -1.3752944e+00   2.8941667e-02
 -1.2191417e+00   8.7029733e-02
 -3.6903510e+00   6.6221148e-02
  2.4269421e+00   7.9396684e-03
 -2.5734861e+00   8.8134117e-02
 -5.8325686e+00   4.0295329e-03
  3.3969223e-01   6.4117812e-02
 -5.8040156e+00   3.6023211e-02
 -5.0707493e+00   9.8890565e-02
 -3.3841958e+00   6.4268425e-02
 -8.8448658e+00   2.9370941e-02
  3.6319923e+00   5.2564219e-02
 -2.5060425e+00   4.4073734e-02
  1.0826668e+00   8.3036974e-02
  1.5987641e+00   3.7410688e-03
  1.1972300e+00   1.7891753e-03
 -2.4087322e+00   6.9897571e-03
  9.3987024e-01   3.0032732e-03
 -1.0138445e+00   2.8748931e-03
 -8.1278439e+00   9.0028472e-02
  1.2218844e+01   4.6902407e-02
 -5.4342765e-01   6.3995328e-03
 -1.1543000e+00   6.8322152e-02
  1.2152188e+00   5.2183960e-02
 -1.6297332e+00   9.5204478e-03
 -2.6484144e-01   1.8325696e-02
 -1.8710241e+00   6.6444688e-02
  9.1677504e+00   8.4106468e-02
  4.9210129e+00   5.8634587e-02
 -9.5379467e+00   1.5976742e-02
 -3.0034411e+00   1.2985676e-02
  5.7903290e-01   3.1781474e-03
 -2.4855464e+00   6.1016593e-02
 -6.8877929e-01   9.3979977e-02
  1.2638660e+01   5.7911791e-02
 -4.4383616e+00   5.5834945e-02
 -7.2228307e-01   1.4316490e-03
 -1.3172859e+00   5.9557687e-03
  2.4400508e+00   3.3452457e-03
 -2.9203315e+00   3.4185085e-03
 -2.2170546e+00   7.6613210e-02
  3.4672008e+00   2.3198487e-02
 -2.9176266e+00   1.0632959e-02
 -7.0039606e+00   8.3538882e-02
  4.9823575e+00   3.8628619e-02
 -4.0724139e+00   3.9559215e-02
 -3.5973566e+00   6.4383984e-02
 -6.3440757e+00   8.1106676e-03
 -2.2540276e+00   1.0306423e-02
 -5.9903431e+00   5.2323542e-03
 -6.5310221e+00   2.5573134e-02
  1.8299079e-01   3.6624738e-03
 -3.7930412e+00   8.0384806e-02
  1.5349777e+00   2.2317428e-02
 -3.1599095e+00   2.8397567e-03
  8.1546268e+00   2.1715321e-02
 -2.6615703e+00   7.6100933e-03
  2.2769530e+00   2.5417523e-03
  1.7951474e-01   5.5533781e-04
 -5.1234765e+00   4.2447101e-02
 -3.4454584e+00   6.1148535e-02
  3.9819619e-01   1.3394482e-02
  3.3337128e-01   2.2936820e-03
  1.3618059e+00   6.8140654e-03
  3.9731579e+00   4.3255616e-02
  9.9396229e+00   4.5809042e-02
  2.8618381e+00   3.7507755e-03
 -7.9005384e+00   4.0027861e-02
 -2.1282725e+00   1.6358111e-02
 -1.7805666e-01   2.8669573e-03
 -2.8131282e-01   5.5360940e-04
 -7.6786679e-01   2.9606162e-02
 -3.8231747e+00   1.2143440e-02
 -1.6095490e+00   1.7033445e-02
  6.8634194e-01   1.2345971e-03
 -1.0155630e+01   7.0301369e-02
 -1.1553491e+00   3.8571674e-02
 -1.5917537e+00   8.1256658e-02
  1.0265087e+01   2.7847340e-02
 -1.9888390e+00   1.7501833e-02
  2.5577323e+00   1.5875461e-02
 -7.2103329e+00   5.6777839e-02
  8.1603490e-02   6.6157199e-02
 -6.0377083e+00   1.5136845e-02
 -1.4323726e-03   1.5180000e-02
 -7.0180740e+00   3.8919725e-02
 -1.0610588e+01   2.2313835e-02
 -1.4842749e+00   4.8690904e-02
  2.7713466e+00   1.0252476e-02
 -5.4224453e+00   5.3436160e-03
 -1.2306852e+00   8.7966345e-02
  4.2861757e+00   6.1078120e-02
 -1.8144199e+00   2.1896632e-03
 -2.6267111e-01   6.6010520e-04
 -1.2181904e+00   3.9271479e-03
 -4.7991295e+00   5.1602811e-02
 -1.0237365e+01   3.0615266e-02
  2.3564162e+00   7.0996806e-03
  8.5816879e+00   8.9544863e-02
 -5.1818061e+00   8.9567244e-02
 -6.4555094e-02   9.8070363e-04
 -4.9736280e+00   4.5938659e-03
  2.5880480e+00   4.5691952e-03
  3.9180355e+00   6.8411738e-02
 -2.6523650e+00   4.0686160e-02
 -8.2615747e+00   8.8597327e-02
 -5.2949351e-01   2.5222503e-02
  8.1826431e-01   1.0327718e-02
  2.2051775e+00   4.7900066e-02
 -1.7043229e+00   2.9038519e-02
  1.0004047e+01   4.5949188e-03
  1.2202255e+01   8.3581932e-02
  1.1993678e+00   3.3796489e-02
 -3.8789568e+00   4.0093869e-02
  6.0045567e+00   1.8339623e-02
 -4.8402047e+00   5.3797975e-02
 -2.4606574e+00   1.0606519e-02
  4.4378438e+00   5.9480462e-02
  3.7827728e+00   6.0335035e-03
  4.8546462e+00   3.7468730e-03
  3.0512192e+00   1.1654913e-02
  4.9891562e+00   9.7656911e-03
  8.3324969e-01   3.4459739e-03
  4.4397169e-01   7.5814523e-02
 -1.9100382e+00   9.2216516e-03
  5.3483763e+00   9.1098055e-02
 -4.9246177e-01   5.0365616e-02
  6.8232045e+00   1.9511720e-02
 -7.4965796e+00   4.2405173e-02
  1.4832623e-02   6.5018642e-03
 -6.4921255e+00   3.0567566e-02
 -2.5226212e+00   2.7738387e-02
 -1.4138345e-01   5.8324127e-03
  4.4148898e+00   9.3011064e-03
  1.0647175e+00   2.9795477e-03
  4.1988268e+00   1.2548992e-02
  1.0539347e+00   8.0618300e-02
 -1.0704740e+01   2.0826641e-02
 -8.6049194e+00   3.0672543e-02
 -2.3642201e+00   1.6844437e-02
  1.0361270e+01   7.1627378e-02
  1.0356902e+00   4.7567036e-02
 -5.6922593e+00   4.4516515e-02
 -5.3754938e-01   6.3195668e-02
 -1.7014903e+00   3.3914033e-02
 -2.6871500e+00   4.3955217e-03
 -7.1530879e-01   3.5307791e-02
  9.4845953e+00   3.0613622e-02
 -2.2717636e+00   1.0918299e-03
 -6.5380950e+00   2.0319414e-03
  2.3877592e+00   6.0184267e-03
 -3.7020248e-01   1.3783383e-03
 -5.0055561e+00   3.2156546e-02
 -4.6247549e+00   2.6337935e-03
 -2.1379313e+00   1.8735141e-02
 -1.2866825e+00   4.9520884e-02
 -3.4878945e+00   6.9840611e-03
 -3.7977204e-01   6.4832687e-02
  3.1076126e+00   3.9488368e-02
  1.6252603e-01   5.2338302e-02
  2.1708777e+00   5.5540245e-02
 -7.4529204e+00   2.9961178e-02
 -9.2111816e+00   1.9891977e-02
  3.5061586e-01   8.4307939e-03
 -1.1811723e+01   4.0123791e-02
  5.4902554e-01   1.7860065e-03
  5.9280982e+00   2.0508580e-03
 -1.8872622e+00   1.3292809e-02
  4.3330903e+00   2.4546023e-02
 -3.2781291e+00   7.1699289e-03
 -6.4624424e+00   3.5989746e-02
 -5.1673107e+00   2.1061851e-03
 -1.9280490e+00   4.4804811e-03
 -7.4604654e+00   3.2091517e-02
  3.9953308e+00   7.7663055e-03
 -2.9150691e+00   3.6727857e-02
  2.5529650e-01   1.5007126e-02
 -2.5991435e+00   1.5559131e-02
  1.0235557e+01   1.0978878e-02
  2.5508597e+00   2.1045681e-02
  1.8426368e+00   1.2563920e-03
 -7.7556400e+00   3.7152566e-02
  9.8020115e+00   1.2290183e-02
  3.5476532e+00   1.0034137e-02
 -4.5976290e-01   3.2107774e-02
 -1.8131319e+00   3.9093491e-02
 -1.9996930e+00   9.3240403e-03
  3.6720654e-01   1.5624301e-02
  1.0154157e+00   1.4845767e-02
  5.3933501e+00   7.4708939e-02
  7.2371833e-02   9.8258793e-02
  3.3903878e+00   7.3367462e-02
 -6.7957959e+00   3.6645678e-03
  5.2227921e+00   5.2878605e-03
  5.0769606e+00   7.4350424e-02
 -5.3828731e+00   8.0630472e-03
 -7.1134968e+00   1.8239453e-02
  1.3822696e+00   4.4743218e-02
  1.2276601e+00   8.5361362e-02
 -7.9635324e+00   6.7294911e-02
 -5.0473386e-01   6.9033846e-02
  3.0065634e+00   4.8697696e-04
  2.4626484e+00   2.8567061e-02
  1.2467165e+00   8.7232761e-02
  5.1056376e+00   1.7955925e-02
 -1.0725609e+00   4.8200805e-02
  5.1923771e+00   2.6633870e-02
  3.9883823e+00   5.5429926e-03
  5.0766139e+00   1.2113462e-03
  1.2035142e+01   7.7162459e-02
  7.0205337e-01   4.6946080e-03
 -6.5229726e+00   6.4465293e-04
  4.8911062e-01   5.8060326e-02
  4.2878509e+00   2.5503885e-02
 -2.9710600e+00   1.3414495e-02
  2.0047715e+00   3.9578285e-02
 -3.5390289e+00   4.6058524e-02
  1.0858979e+00   9.5679052e-02
 -5.6642909e+00   9.9581201e-03
 -2.1228454e+00   8.8538034e-03
  3.7327552e+00   1.1217798e-02
 -9.3852367e+00   1.6838433e-02
  1.7343373e+00   2.8382190e-02
  6.7268752e-02   7.6434220e-04
 -6.1559687e+00   1.0556067e-02
 -3.1426612e-01   2.5229635e-02
 -1.0677738e-01   2.4735129e-03
 -9.1209579e-01   4.9863830e-03
  4.3636193e+00   8.7729143e-03
  4.5632877e+00   1.5422869e-02
  1.2146816e+01   5.9093043e-02
 -1.5725516e+01   2.1025827e-02
 -5.6905770e+00   7.2272941e-02
  9.4003564e-01   3.6105386e-03
  1.0742567e+00   8.6659171e-02
 -3.1390529e+00   5.2020862e-03
  2.9601552e+00   1.8035391e-02
 -6.3012452e+00   3.9770503e-02
 -1.1696048e+00   4.2556051e-02
 -8.8702327e-01   1.5295530e-02
 -7.1979403e-01   3.9235707e-02
 -2.5628166e+00   4.6270046e-02
  7.6710072e+00   1.8086575e-02
 -1.8902459e+00   7.5388901e-02
  2.1643713e+00   9.6565951e-03
  4.1659498e+00   2.4660530e-02
  3.1217976e+00   4.1915588e-03
  6.4396012e-01   4.9368754e-02
 -3.5911131e+00   9.5203873e-03
  1.6931304e-01   1.6165711e-02
 -3.5899439e+00   2.0615818e-02
 -2.6273459e-01   1.2781308e-02
  5.5694962e+00   2.5207693e-02
  1.9140723e+00   3.1499099e-02
  1.2504313e+00   3.5713118e-02
 -9.5865068e+00   1.6823476e-02
 -7.2250266e+00   5.1097654e-02
 -1.5379485e+00   2.3580307e-02
 -5.1425010e-01   2.0941624e-02
  1.8063395e+00   5.2240022e-02
 -6.7469110e+00   4.9280822e-02
 -3.4278438e+00   3.3072382e-03
 -2.5981238e+00   1.0980110e-04
  1.7211318e-01   7.3108032e-02
  1.4479785e+00   9.3180351e-03
 -4.8129272e+00   2.8398221e-02
 -5.1020324e-01   5.9114128e-02
 -5.8560717e-01   3.4460640e-03
 -1.9580851e+00   2.6571257e-03
 -1.0131626e+01   1.7627808e-03
 -2.5444741e+00   4.8130654e-02
 -1.7212200e+00   3.4503657e-02
 -9.9201651e+00   7.5163908e-02
  2.4136162e+00   8.9971162e-03
  2.6770949e+00   1.1565423e-02
 -5.0925612e-02   1.0479809e-02
 -4.9006014e+00   9.4082262e-03
 -3.7660236e+00   1.8294537e-02
 -1.6219506e+00   2.7983328e-02
 -6.3280624e-01   4.8518021e-02
 -2.0953739e+00   4.9618115e-03
 -4.6008201e+00   3.9870128e-02
  2.9292300e+00   4.6958653e-03
 -2.8466158e+00   7.6103292e-02
  3.3168750e+00   1.4826691e-02
 -2.7331764e-01   9.7119793e-02
  4.2464817e-01   3.0311568e-02
  1.0089885e+00   1.4708464e-03
  3.1195033e+00   6.3908391e-02
 -9.2964232e-02   4.5534145e-02
  2.4427452e+00   1.9783525e-02
  2.8462920e+00   6.7403629e-02
  3.5408661e+00   4.1613508e-02
  4.2612987e+00   4.7669671e-03
  2.5168157e+00   1.6056703e-02
  2.8274870e-01   8.0221426e-03
  8.6934996e+00   1.6996244e-03
 -3.9719450e+00   2.4457598e-02
  1.2045410e+00   8.5734144e-02
  5.5550969e-01   4.0444480e-03
 -4.0663662e+00   3.7616801e-02
  1.7987795e+00   2.0764489e-02
  6.8508011e-01   1.8547349e-02
  1.7142430e-01   1.4787637e-02
  5.8050103e+00   3.5626534e-02
 -1.5586583e+01   1.3288599e-02
  3.6525497e+00   4.8871335e-02
  7.7823925e-01   1.9213678e-02
  1.7770710e+00   1.2145367e-02
 -3.4459512e+00   1.7103594e-02
 -8.6871090e+00   3.8005345e-02
  3.3342004e+00   3.2813367e-02
  8.8075864e-01   5.7395492e-02
 -5.6183667e+00   4.6806142e-02
  3.4256783e-01   2.6372742e-02
  4.8631349e-01   4.7516059e-02
 -6.3363999e-01   3.9386582e-02
  1.8223875e+00   5.3555533e-02
 -6.2219934e+00   5.3910667e-04
  5.4964757e+00   1.3584506e-02
  5.0407791e+00   9.2415050e-02
  2.8499801e+00   8.2385994e-02
  4.2768440e+00   7.2759151e-02
 -2.5927942e+00   6.1366442e-03
  3.2109184e+00   5.7226378e-03
 -7.7248039e+00   9.2268288e-02
  2.2488976e-01   2.2598688e-02
 -5.3742108e+00   1.2338853e-03
  1.2903203e+00   7.2205856e-02
  2.5725648e+00   9.1110459e-03
  8.1724701e+00   6.4641804e-02
  4.5679587e-01   1.2191259e-02
  1.5285629e-02   3.5755210e-02
  1.0941125e+01   3.7058566e-03
 -1.7172439e+00   4.9755942e-02
  3.7243209e+00   2.5270698e-03
  1.6134068e+00   1.3305211e-02
 -8.0286093e+00   1.2586254e-02
 -3.0084450e+00   1.4743374e-02
  5.3672357e+00   2.8380372e-02
 -1.5123297e+00   1.8330764e-03
  6.7918622e-01   7.4166261e-02
  7.3940849e+00   9.8537458e-03
  1.4783186e+00   6.9014303e-02
  5.2903581e-01   2.3584219e-03
 -4.7851181e+00   1.3345160e-02
 -2.9597884e-01   1.2548637e-02
 -2.0322890e+00   1.2465796e-02
  1.0245689e+00   1.4478367e-02
  1.0196819e+00   3.2329254e-02
  9.3028526e+00   2.3063952e-02
 -1.1279237e+00   7.3840902e-03
  7.2811575e+00   3.7392069e-02
  1.2009076e+01   4.2202577e-02
 -3.9608389e-01   3.8508940e-02
 -3.2227247e+00   4.5338947e-02
 -2.1914258e+00   4.4195578e-02
 -8.0932659e-01   2.4008103e-02
 -8.6392517e+00   5.7828203e-02
 -2.3441796e+00   7.1294688e-02
 -2.8525159e+00   9.1852285e-03
 -6.4576775e-01   9.4571687e-02
  5.9802680e+00   8.5622184e-02
  7.9936814e+00   5.7830773e-02
  3.1141801e+00   3.8260274e-02
 -4.5338354e+00   7.8383565e-02
  9.2550030e+00   2.7302409e-02
  2.6245890e+00   1.2028095e-04
  1.8305593e+00   2.3023732e-02
  1.1072170e+00   3.3330645e-03
 -1.6872882e+00   5.3079374e-02
 -2.8558047e+00   4.4403789e-03
 -4.8623257e+00   2.3536215e-02
 -3.6050410e+00   3.3587299e-03
  2.8107824e+00   6.8859093e-02
 -8.1540623e+00   3.9422654e-02
 -4.9033909e+00   2.3900723e-02
 -3.1308358e+00   2.5658211e-02
 -4.0317936e+00   1.0311950e-02
 -8.1516159e-01   4.9044639e-02
  2.5710804e+00   1.7166421e-02
  1.9710211e+00   3.0979332e-02
  8.6561227e-01   3.3790775e-02
 -2.3329401e+00   3.8125799e-03
  1.3834763e+00   2.9252337e-03
 -3.7514212e+00   8.3319694e-03
 -2.1957031e-01   4.5503393e-02
  9.9853045e-01   5.8147047e-02
 -2.2760596e+00   2.6609283e-03
 -2.9499974e+00   1.0878008e-02
 -2.3837032e+00   4.8824467e-04
 -2.9534459e+00   4.4836219e-02
  2.3693314e+00   5.9859760e-02
 -1.2044846e+00   7.5120740e-02
 -2.4162090e+00   1.9949479e-02
 -2.3297188e+00   4.5738228e-02
  7.8358674e+00   6.9991820e-02
  5.2023859e+00   5.0138822e-03
 -4.2881250e+00   9.7211771e-02
 -1.3486600e-01   6.0888238e-02
 -3.5376644e+00   7.7461585e-02
  2.4586821e+00   4.6881843e-02
  5.5505595e+00   1.5241520e-02
  5.4706043e-01   7.9211436e-02
 -1.6251844e+00   2.7047448e-02
 -4.8135254e-01   8.3123930e-03
 -4.4793668e+00   1.4032939e-02
 -3.7064445e-01   2.3287401e-02
 -7.0607710e+00   3.6293276e-02
  5.3067368e-01   9.4650509e-03
 -4.9514060e+00   8.5275002e-02
  9.0380704e-01   6.8566449e-02
 -1.3039397e+00   3.5651571e-03
  5.0472541e+00   6.5485679e-02
 -2.2867093e+00   8.0325408e-03
 -1.4846984e+00   2.8076695e-02
 -3.8165135e+00   1.6199588e-03
 -1.9574943e+00   3.2281183e-02
  9.3469000e+00   3.7058331e-02
  8.3587646e+00   1.3184188e-02
  9.1765475e-01   5.1871906e-03
  1.1445015e+01   2.4276534e-03
 -6.0111308e+00   7.9781264e-02
  6.9443398e+00   3.1540766e-02
  5.5018568e+00   7.8817628e-02
  7.1288385e+00   9.9375263e-02
 -1.7562414e+00   1.5448597e-02
 -3.4374037e+00   1.0191509e-02
  3.2144840e+00   7.1993791e-02
 -8.8003492e+00   4.6539535e-03
  5.3876548e+00   6.9422215e-02
  2.8517661e+00   9.0265013e-02
  2.2475095e+00   1.5805455e-02
  5.5322766e+00   3.7163187e-02
 -1.9953473e+00   3.4796648e-02
  1.0999773e+00   1.0470200e-02
 -3.4795296e+00   3.2101572e-04
  1.9273164e+00   4.1237373e-02
 -9.2883849e-01   1.7514804e-02
 -2.1530125e+00   3.2344431e-02
 -5.4432192e+00   2.3852602e-02
  7.5020800e+00   5.5141848e-02
  5.0775285e+00   4.1602790e-02
 -1.8339688e+00   8.8910945e-02
  3.3511689e+00   1.4153182e-03
 -1.0523911e+00   1.9431038e-02
  7.9240984e-01   1.9814508e-02
 -2.0922649e+00   6.2788986e-03
  3.5187092e+00   5.2967314e-03
  1.8332045e+00   1.0381288e-02
  9.0248957e+00   6.4677395e-02
  5.3156528e+00   1.9621061e-02
  1.5600139e+00   4.4754162e-02
  7.2220383e+00   2.2747979e-02
 -1.8553096e+00   6.4108595e-02
  3.8568645e+00   9.2357406e-03
 -2.0642312e+00   8.1354696e-03
  3.0697842e+00   8.0569857e-04
 -3.8800392e+00   5.7704551e-03
 -5.0588317e+00   4.8144694e-02
 -2.9785793e+00   5.8310192e-02
 -1.7705542e+00   1.2086265e-02
  3.7424970e-01   1.6157590e-02
 -5.4077858e-01   1.1665318e-02
  4.2330408e+00   5.4731399e-02
 -1.5727988e+00   4.7720809e-04
  9.7552794e-01   3.2715868e-02
  1.9257216e+00   5.1652770e-02
 -4.7072625e+00   4.8297357e-02
 -5.7981462e+00   5.6747094e-02
  6.3179314e-01   2.5662901e-02
 -1.1476496e+00   6.6126861e-02
 -2.8142724e+00   9.6114956e-02
 -6.6778460e+00   3.8126450e-02
  3.2333490e-01   8.9494223e-03
 -7.3030500e+00   1.7475382e-03
 -3.0519223e-01   1.7427658e-03
 -7.6601300e+00   5.1801339e-02
  5.1403008e+00   4.6928909e-02
  8.5173559e+00   2.4248334e-02
  8.2731915e+00   2.6583456e-02
  1.0657601e-01   1.7771263e-02
  7.2779312e+00   6.9963850e-02
  6.5501199e+00   1.1086955e-02
  1.1231164e+00   2.4195399e-02
 -1.1058653e+01   4.2592414e-02
 -3.5210717e+00   4.3824442e-02
  1.6649714e-02   8.9239202e-02
  2.5207744e+00   1.6468858e-02
 -1.5927144e+00   2.2103027e-02
 -2.3276927e+00   5.1694218e-02
  6.7610226e+00   6.9604971e-02
  5.3342748e+00   5.4695942e-02
 -3.2267611e+00   1.0180669e-02
 -7.5798459e+00   5.7667061e-03
  3.9072185e+00   4.7097839e-02
  6.5416336e+00   9.7723611e-02
  1.0657848e+00   7.5143650e-02
 -1.6076465e+00   2.4153400e-02
  2.4973767e+00   7.2695515e-03
 -1.1130915e+00   8.1055261e-02
  7.3238001e+00   6.3553765e-02
  1.4688875e-01   8.0740824e-02
  8.6318455e+00   9.3317993e-02
  4.8823941e-01   3.8662501e-02
 -3.4772286e-01   9.9499617e-03
  2.7923038e+00   5.7546735e-02
  2.3124433e+00   3.4743571e-03
  5.6859384e+00   1.2014981e-02
  1.8094631e+00   7.9065561e-03
 -1.6728263e-01   9.0848766e-02
  4.5553317e+00   2.3167580e-02
 -7.2709680e+00   1.0860313e-03
  5.7817798e+00   5.8099560e-02
 -4.8160076e+00   2.7135971e-03
 -6.3875060e+00   7.4523568e-02
  3.5884049e+00   2.9115755e-02
  5.7772141e+00   1.9571599e-02
  3.4736581e+00   8.1364967e-02
 -1.2677610e+00   8.5584581e-02
 -6.7427236e-01   8.9149691e-02
  2.0514429e+00   9.3240160e-03
 -7.0554252e+00   4.1716709e-03
 -8.0945915e-01   4.7789387e-02
  4.4035416e+00   7.6251230e-03
  5.4632497e+00   2.3196802e-02
 -2.0484786e+00   4.7288779e-02
  3.5067611e+00   9.3241371e-02
 -7.2715440e+00   2.0998437e-02
 -3.8220031e+00   4.2746361e-02
  3.2639766e+00   5.2437359e-03
  7.1558065e+00   5.0200908e-03
 -4.0998256e-01   1.9296460e-02
  7.3853455e-02   9.0881765e-02
  3.3152056e-01   7.8297041e-02
 -3.2040694e-01   8.0874711e-03
 -5.9721665e+00   1.3867106e-03
 -1.9656072e+00   5.3864583e-02
  5.2136083e+00   1.2073307e-02
  7.2601252e+00   1.1851708e-02
  1.1401845e+00   8.3527625e-02
  4.8803067e+00   3.9561745e-03
 -1.9008288e+00   5.9976857e-02
  3.9233923e+00   1.6115509e-02
 -2.1695526e+00   2.5547182e-02
 -8.5396767e-02   2.2458235e-02
  1.7726748e+00   7.4992254e-02
  1.2211911e-01   1.7490169e-02
  1.5448089e+00   1.4180980e-03
 -4.2053604e+00   8.5456893e-02
 -6.7650690e+00   1.5410939e-03
 -3.9995079e+00   6.9084443e-02
 -1.6774443e+00   4.0135793e-02
  9.4730959e+00   6.5421261e-02
  1.7605338e+00   1.7068390e-02
  1.0861967e+01   1.8457273e-02
  3.2533267e+00   4.2779669e-02
 -1.5719118e+00   4.1098353e-02
 -5.4543238e+00   1.0561094e-02
 -5.4104400e-01   5.8894213e-02
  5.6639276e+00   2.0039011e-02
 -3.5407929e+00   8.9109838e-02
  5.6853819e+00   2.4270091e-02
  7.2307938e-01   8.1684679e-02
  2.0365789e+00   5.7084924e-03
  7.5791466e-01   2.9092951e-02
 -4.3679148e-01   3.3388726e-02
 -4.6673522e+00   1.0043154e-02
 -4.8795936e-01   9.7751625e-02
 -4.8379416e+00   8.2105644e-02
  1.2355114e+00   2.0097489e-02
  4.6708817e+00   3.9703855e-03
  6.4336600e+00   1.1707464e-02
 -1.4326581e+00   1.2694421e-02
  2.1423993e+00   3.1627184e-03
 -7.9769602e+00   3.4601360e-03
 -4.9590201e+00   8.6345471e-02
 -6.0861588e+00   6.7648903e-02
 -2.1032417e+00   9.0746274e-03
  3.5922935e+00   5.3947952e-02
  2.7877994e+00   2.6041605e-02
  2.4825580e+00   1.2925428e-03
  2.2133183e+00   3.0916881e-02
  1.8016420e-01   4.4493694e-02
  9.3717605e-01   2.3193151e-02
 -2.5288751e+00   3.3489522e-02
  4.2471018e+00   9.4101474e-02
  5.0628533e+00   1.6921528e-02
  6.5869527e+00   4.8546676e-02
  2.9365013e+00   7.8785770e-02
  3.0612683e+00   3.8362361e-02
 -7.4868340e+00   4.2818125e-02
 -1.1727598e+00   7.5151203e-03
  7.8416815e+00   1.5247690e-02
  1.8937077e+01   1.7173205e-02
 -2.4618859e+00   4.8439177e-03
 -1.0121933e+01   4.0997922e-02
  3.0497708e+00   1.3605250e-02
  4.0327921e+00   1.3620541e-02
  4.4582171e+00   1.0381306e-02
 -1.1628821e+01   2.6630918e-02
  3.0300715e+00   1.0000000e-01
  7.0299679e-01   2.5422934e-03
 -5.9248000e-01   8.1124164e-02
  3.1513600e+00   3.5979453e-02
  2.3854701e-01   2.2905160e-02
  6.3042192e+00   2.3021132e-02
  2.7869928e+00   1.1005703e-02
  1.8447994e+00   3.6454771e-02
  8.4805355e+00   1.3555671e-02
  2.8907037e+00   1.6142169e-02
 -3.7894440e-01   7.4033245e-02
  1.1646912e+01   4.4251014e-02
 -1.3105006e+00   5.4321516e-02
 -1.0597692e+01   9.9228263e-02
 -3.1720015e-01   2.2371046e-03
  4.2652111e+00   1.0632086e-02
  2.1051358e-01   2.8795449e-02
  3.8124838e+00   5.5925105e-02
  4.7697470e-01   1.6329292e-02
  7.2597545e-01   1.1231578e-02
 -3.8719025e+00   7.1306251e-02
 -1.0731871e+00   5.2818909e-02
 -1.4376286e+00   1.4334869e-02
  1.2636743e+00   6.3757184e-03
 -6.3412170e+00   3.9061531e-02
 -3.8587475e+00   6.7285903e-02
 -4.6412235e-01   9.4324693e-02
 -8.6334362e+00   8.5282378e-02
  7.6650572e-01   3.1567287e-02
  9.2784405e-01   1.8811300e-02
 -2.5811465e+00   4.6705604e-02
  2.7766185e+00   5.8076091e-02
  4.1401453e+00   8.9902423e-02
 -2.8155794e+00   4.9083326e-02
 -5.5378084e+00   3.7637658e-02
 -1.3547344e+00   8.2445852e-02
 -2.6222084e+00   2.7833268e-02
 -3.6282392e+00   1.0236759e-02
 -4.5849957e+00   5.0386373e-02
 -3.2129989e+00   1.1905481e-02
  3.4593561e-01   1.1238822e-02
 -3.9577534e+00   4.6512626e-02
 -2.9303010e+00   2.3084931e-02
 -1.0764504e+01   3.4861835e-03
  9.0006876e+00   7.8407109e-02
  9.3542175e+00   2.7276129e-02
  4.7003112e+00   1.8528450e-02
  4.1683939e-01   1.1442909e-02
  8.7128699e-01   6.5550273e-03
 -1.7199824e+00   7.9271384e-04
  4.4706635e+00   3.1974081e-02
 -1.9514717e+00   1.2311978e-04
  7.1656924e-01   5.5364672e-02
  3.1676495e-01   2.6795965e-02
  1.4637487e+00   9.0162735e-03
  6.8550739e+00   2.6646792e-03
 -9.4768391e+00   9.5119394e-02
 -9.0647775e-01   4.0070084e-03
  4.6063724e-01   4.4770326e-02
 -2.7648954e+00   7.8813307e-02
 -1.2925855e+00   5.7695661e-02
  3.2021707e-01   1.9811708e-02
 -4.2347789e+00   1.3208600e-03
 -4.7951913e+00   2.1067794e-02
 -3.2206011e+00   1.1017817e-02
 -1.4309918e+01   6.6595972e-03
 -5.2155075e+00   8.1020556e-02
  4.2332649e-01   5.5600505e-02
  1.7739934e+00   7.5147785e-03
  4.6360416e+00   1.9939292e-02
 -1.1561058e+00   6.6810022e-03
 -3.9079802e+00   1.6466925e-02
  3.2515867e+00   4.8544880e-02
  1.2447028e+00   4.1479375e-03
  4.2699919e+00   5.5616524e-02
 -6.8846641e+00   4.6535797e-02
  1.7954800e+00   2.4783144e-02
 -1.7387723e+00   1.1586806e-02
 -1.5705217e+00   4.2371906e-02
  1.7077282e-01   8.0740741e-03
 -4.3587976e+00   5.3128727e-02
 -4.1319466e+00   3.2443319e-02
  1.5661706e+00   6.9945998e-02
 -9.0291815e+00   6.8116568e-02
  9.1752472e+00   4.6039697e-02
 -5.6152587e+00   5.2360952e-02
  8.6512178e-01   5.6904778e-02
  3.1392881e-01   2.1576054e-02
  3.8773975e+00   6.0301227e-03
  2.8531299e+00   2.8305408e-02
 -7.4454637e+00   7.9179399e-02
  6.2950468e+00   1.0442912e-02
  3.2184114e+00   7.3887639e-02
 -2.0052898e+00   2.3201171e-03
  2.4089365e+00   5.6414895e-02
 -3.9505227e+00   8.3434701e-02
 -4.4524441e+00   7.1320571e-02
  5.6616144e+00   2.3493350e-02
  4.8747344e+00   3.2488119e-02
  6.7691135e-01   3.0316897e-02
 -8.9700305e-01   8.8730916e-02
 -7.7626452e+00   6.8438947e-02
  3.7681890e+00   5.2775949e-02
 -1.6101345e+00   1.9061238e-02
 -5.9207802e+00   5.0634444e-02
 -4.6427794e+00   2.0409464e-03
  1.8423544e+00   3.9190021e-03
  7.0551043e+00   5.7770994e-02
  5.9371490e+00   3.9895408e-02
 -9.6191835e+00   6.4409576e-02
 -4.6355519e+00   3.0018380e-02
 -3.8755574e+00   1.4067750e-02
 -1.3439207e-01   7.5543200e-04
 -1.9933385e+00   3.2565944e-02
  1.2056676e+00   6.8906322e-02
  5.7665277e+00   4.7829296e-02
 -1.3019367e+00   8.0134720e-02
 -5.1951270e+00   7.2560042e-02
 -3.1789234e+00   4.3593287e-02
  3.8678622e+00   6.7926496e-02
 -1.4257783e+00   2.2921513e-03
  2.5912683e+00   3.4656193e-02
 -2.1813118e+00   4.2949840e-02
  2.2133849e+00   2.7697561e-02
 -9.0302211e-01   4.2824119e-02
  6.5454736e+00   1.4860922e-02
  5.3959651e+00   9.6606150e-02
 -7.5670290e+00   2.9025571e-02
 -8.3490241e-01   7.9032540e-02
 -1.2381124e+00   5.9360638e-02
  3.0325093e+00   7.4997963e-04
  2.4381258e+00   9.1941275e-02
 -2.3714395e+00   1.2243744e-02
  6.6856403e+00   3.5749923e-02
 -5.9081712e+00   5.5717248e-02
 -1.0057557e+00   5.5772893e-02
  8.7523403e+00   6.5404490e-02
 -2.3118787e+00   3.0494701e-02
 -3.5028142e-01   3.1315327e-02
  3.7372401e+00   2.2903425e-03
 -2.3015587e-01   3.0415978e-02
 -1.0301492e+01   4.6067014e-02
 -4.1600509e+00   2.0896746e-02
  1.3113242e+01   4.5126781e-02
  6.9757600e+00   1.7586643e-02
 -2.6163633e+00   4.0968344e-02
 -1.2607481e-01   3.3932857e-02
  4.7471833e+00   1.4226311e-02
 -1.3912405e+00   2.8018042e-02
  6.2155724e-01   1.6238427e-02
  4.5761473e-02   8.0370098e-02
 -3.9059918e+00   4.4304063e-03
  2.9966155e-01   9.0431320e-03
 -2.0980785e+00   8.1878327e-02
  1.5431355e-01   9.3712978e-02
 -7.9545746e+00   2.3212833e-02
 -3.8124571e+00   5.4797325e-02
 -8.6651945e-01   2.0749629e-03
 -8.6788969e+00   2.9433081e-02
  9.4726667e+00   9.3038112e-02
 -3.6049957e+00   1.0341267e-02
  3.7498055e+00   2.4038488e-02
 -3.7407342e-01   2.8709263e-02
 -1.2870667e+00   7.2927371e-02
 -5.8695288e+00   5.2560763e-03
  5.5509806e+00   8.4109291e-02
  1.5226084e+00   2.3448817e-02
 -2.5756321e+00   7.5943694e-02
 -7.9770261e-01   8.3233947e-03
  4.4474206e+00   7.7243000e-03
 -1.3671420e+00   5.0528172e-02
  1.4560895e+00   6.5809198e-02
 -1.1858568e+01   7.0822060e-02
  2.1762900e+00   6.9701625e-03
  1.8564248e+00   1.2740894e-02
  2.6035047e+00   7.7104077e-02
 -1.3279961e+00   1.5314358e-03
 -8.3193350e+00   8.3519243e-02
 -2.9921883e-01   4.0623255e-02
 -3.2778563e+00   3.0321949e-03
  1.9264957e+00   1.6994331e-03
 -6.2486115e+00   7.0316061e-02
 -4.6755338e+00   9.5813759e-02
  1.9611063e+00   3.3275191e-02
 -4.8806930e+00   2.8487702e-03
  3.0487454e+00   3.1285854e-03
  6.7739744e+00   1.2711691e-02
 -4.7282867e+00   2.7028034e-02
  4.5127983e+00   3.0297445e-02
 -8.9753252e-01   7.4545920e-02
  1.3511088e+00   8.2656862e-03
  4.7452683e+00   1.6247448e-02
 -2.0448024e+00   4.3702181e-02
  4.1761131e+00   1.6298555e-02
  1.0581170e+00   5.9824072e-02
  4.1630020e+00   1.1573850e-02
  6.3973123e-01   5.4232374e-02
  7.1281581e+00   5.9867180e-03
  6.9619274e-01   1.3827346e-02
  4.8856716e+00   3.7607770e-02
 -3.6489863e+00   3.8996637e-02
 -4.0124841e+00   2.8634273e-02
  2.4122331e-01   5.8554612e-02
  4.7172090e-01   8.2923740e-02
  2.2346396e+00   1.2974401e-02
  7.9843557e-01   5.3572360e-02
  7.2673917e-01   5.1222723e-02
 -3.6045846e-01   2.7136344e-02
  2.2036245e+00   1.0224846e-02
 -1.2926610e+00   7.0313318e-04
  8.6730129e-01   3.2124560e-02
  3.8260984e+00   2.7109200e-02
 -4.7433801e+00   1.3831130e-02
  4.6694496e-01   4.5704946e-02
  6.9278836e-01   2.6141150e-02
  2.2219877e+00   9.5072761e-02
  6.8561083e-01   2.1100590e-02
 -3.2003412e+00   1.9941577e-03
  1.1926039e+01   1.8733708e-02
  2.6177273e+00   6.3808300e-03
  5.7896061e+00   7.9419175e-03
 -3.9742548e+00   1.8293345e-02
  5.9944832e-01   3.1597402e-02
  3.9455078e+00   4.2563425e-03
  4.6675205e+00   4.6826698e-02
 -8.1713543e+00   5.7045717e-02
  3.1200004e-01   5.8436759e-02
  5.8480638e-01   4.7259214e-03
  6.5729465e+00   1.4126643e-02
 -3.7811921e+00   1.0422138e-03
 -2.0411379e+00   4.5898255e-02
 -3.3253963e+00   2.7165932e-03
 -2.7628341e-01   2.8285773e-03
 -4.9365053e+00   5.6244995e-02
  1.0571383e+00   1.2633363e-02
  5.5392998e-01   7.7932894e-02
 -5.5795908e+00   1.7594149e-02
  4.9624977e+00   8.5554071e-02
 -3.5298672e+00   4.0315922e-02
  3.2930048e+00   2.1793803e-02
  9.8867938e-02   9.2629381e-02
  5.6216254e+00   2.4277851e-02
  1.6530466e+00   6.0459613e-03
 -3.7465909e+00   3.8045976e-02
  1.2771277e+00   9.7474858e-02
  2.3403156e+00   3.1851962e-02
 -1.6120566e+00   9.4662905e-02
  5.2265823e-01   1.3022721e-03
 -2.3570111e+00   9.1538452e-02
  1.8702328e+00   2.0778075e-02
 -1.2886827e+01   8.8011943e-02
 -7.3617549e+00   6.2650926e-02
  4.3054247e+00   3.5697978e-02
 -3.5117269e-01   2.6243825e-02
 -4.4811115e+00   1.2059339e-02
  6.9714127e+00   4.2433068e-02
  2.2623858e+00   4.4919204e-02
 -1.6415989e-01   1.5441622e-02
  1.4171505e-01   4.5752279e-03
  2.7847113e-02   9.6699465e-03
 -6.2388744e+00   3.1944517e-02
  3.5591826e-01   2.0171208e-03
 -3.9167554e+00   1.7784123e-03
  5.7248192e+00   6.0477490e-03
  1.7923852e+00   1.6224986e-02
 -2.6017258e+00   8.3008014e-02
 -2.6584303e-01   1.0547225e-02
  7.8408604e+00   4.3437306e-02
 -9.6073761e+00   6.1781574e-02
 -5.0215521e+00   2.9911783e-02
  6.0174623e+00   6.2464233e-02
  3.3047140e+00   1.9280894e-02
  5.2324710e+00   9.3435384e-03
 -4.0906563e+00   1.1024053e-02
 -6.9638724e+00   3.1892173e-02
 -2.6025505e+00   3.8423578e-04
 -8.1929952e-01   1.1036125e-02
  1.4110806e+00   7.8880228e-03
 -4.5263033e+00   4.7596239e-02
 -2.8968339e+00   8.3121099e-03
 -5.2154222e+00   1.5132342e-02
  5.6558971e+00   3.5827849e-02
 -2.2446969e+00   3.8334444e-02
 -3.9241705e+00   4.7930907e-02
 -4.0143061e+00   5.3718422e-02
 -1.5563904e+00   8.1884399e-02
  2.6943827e+00   5.5831466e-03
  2.1036544e+00   2.0861132e-02
  3.0236859e+00   3.4313887e-02
 -4.8503299e+00   2.4327135e-02
 -3.9832606e+00   5.2241500e-02
 -5.8170934e+00   6.1340455e-02
  1.2809937e+00   5.3795174e-02
 -2.0836091e+00   1.2811737e-02
 -3.1594977e+00   6.9198355e-02
 -6.3571639e+00   2.2809189e-02
 -1.6102528e+01   2.1000177e-02
  5.3332057e+00   5.3671304e-02
 -2.5234048e+00   1.2402671e-02
  3.2924244e+00   3.1275298e-02
 -7.5336518e+00   6.2803023e-02
  1.7772688e+00   5.2224949e-02
 -3.3822963e-01   6.0419876e-02
 -2.5898588e+00   4.4979990e-02
  2.4690444e+00   1.5505584e-03
 -4.6032101e-01   3.5710710e-03
  1.9942622e+00   8.3876595e-02
  3.2742367e+00   8.9640357e-02
 -5.6507049e+00   6.1410889e-02
  3.9737377e-01   7.5811788e-02
  1.1204505e+01   5.0507843e-02
  1.1105554e+01   3.9731752e-02
 -3.7538483e+00   9.7307570e-02
 -8.1937313e-01   2.5137844e-02
 -1.2616827e+00   2.7178336e-02
  1.6637467e+00   4.0466383e-02
 -3.0154095e+00   5.3837621e-03
 -4.0938554e+00   1.5288785e-02
  1.5214196e+00   3.9540719e-02
  8.4489547e-02   5.5179860e-02
  2.2000282e+00   1.1676817e-02
  1.0795642e+00   7.1400955e-02
 -5.4362102e+00   1.0840130e-03
  9.5265508e-01   2.2557918e-02
  1.5389353e+00   3.4730151e-02
  3.7687018e+00   9.2353739e-02
  5.0458865e+00   3.1383887e-02
  6.9089851e+00   2.9000683e-02
  1.7222335e+00   5.0868765e-02
  6.3528333e+00   5.8924023e-02