 -1.5522275e+00   2.6708464e-03
 -9.4125319e-01   3.0243855e-05
 -5.4819832e+00   1.8399734e-02
  4.1364145e+00   1.8884206e-02
 -4.8922758e+00   2.3597768e-03
  1.4919457e+00   1.5167956e-02
  5.7012994e-02   3.0037142e-02
  1.2653558e+00   1.7067142e-02
 -2.1670091e+00   6.6459499e-04
  2.0100195e+00   2.1293019e-03
 -3.2103179e+00   6.6516828e-04
 -4.0494505e-02   8.6139012e-03
  7.5823791e-02   2.0273702e-02
  5.5533223e-02   5.5470474e-02
 -4.4778466e-02   2.2639327e-02
 -1.8155551e-01   1.8515652e-02
 -7.7632385e-01   6.3424902e-03
  5.5407965e-01   4.8925247e-02
 -2.0339956e+00   3.0589050e-03
  1.3214053e+00   2.7929017e-04
 -1.8468176e-01   6.0936329e-03
  1.0703745e+00   1.3593809e-03
  2.2619601e-02   1.9649001e-04
 -4.8188221e-01   2.6256752e-05
 -1.0074718e+00   4.7530648e-06
  1.6365308e+00   1.6473956e-02
  6.7607812e-03   4.7320798e-02
  5.4191250e-01   1.1022180e-02
  4.6744069e-01   4.9058206e-02
 -2.5524011e-01   4.2256662e-03
  3.0587059e-01   3.5777386e-02
  7.3437458e-01   7.3174131e-03
 -1.7999014e-01   2.4594483e-03
  1.6142291e+00   3.3883177e-04
 -2.1420667e+00   1.8086448e-02
 -1.1615374e+00   5.2448949e-03
 -1.6995207e+00   2.0909915e-02
 -2.1268083e-01   5.6734126e-02
 -1.1434275e+00   1.3228872e-02
  1.8903162e+00   3.7005134e-02
  1.1782749e+01   2.2024540e-02
 -4.1160208e-01   2.5309196e-02
  1.9879336e+00   9.8999962e-03
  5.0930333e-01   9.1360450e-02
  2.4362409e+00   2.6104685e-06
 -2.6668167e+00   4.9717217e-03
 -5.3166509e-02   6.3476779e-02
  2.1975160e+00   6.5911463e-03
 -2.1553905e+00   4.0461044e-03
 -2.6139376e-01   3.0859094e-02
 -5.4041564e-01   4.0553848e-04
  1.0791540e+00   6.4792745e-02
  4.2075044e-01   1.6122075e-03
 -5.9525366e+00   4.5514919e-04
 -1.6528029e+00   1.7618113e-05
 -6.8965230e+00   4.6466157e-04
 -5.4150516e-01   5.4993492e-04
  1.1382095e+00   4.9795876e-03
 -2.0955089e-01   2.7387063e-03
  1.4936707e+00   2.5304488e-04
 -3.0871608e+00   1.0266436e-03
 -5.6212388e-02   1.7264182e-03
 -4.2366638e+00   6.8186334e-04
  2.8963637e+00   4.0427819e-04
  8.5564274e-01   2.7755275e-03
 -1.2370703e+00   1.0593793e-03
 -2.4335492e+00   9.4257090e-03
 -1.7244205e+00   4.3790802e-04
  3.0589312e-01   1.4923795e-05
 -1.8524042e+00   6.5282742e-03
 -1.7094654e+00   8.8848948e-02
  5.8126211e+00   2.9404582e-02
  4.8527330e-01   4.3531314e-02
  5.7919240e+00   2.6050888e-03
  2.0781651e+00   1.5962495e-02
 -1.7894907e+00   6.2485028e-04
 -3.4928018e-01   1.4038469e-05
  5.4121170e-02   3.1090963e-03
 -5.8913398e+00   2.1370107e-03
 -1.6035153e+00   2.0662566e-05
  3.8977078e-01   1.7760926e-03
 -1.8212780e+00   1.1812346e-02
  7.5620669e-01   4.4026799e-03
  1.6420456e+00   2.3909370e-04
 -7.2460371e-01   1.8708559e-03
 -1.4266405e+00   9.6850895e-04
 -8.8204312e-01   3.5262883e-02
 -6.2064304e+00   9.5312759e-02
  3.3527983e-03   2.0279324e-02
  9.0699381e-01   6.9319122e-03
 -4.0887669e-02   4.1852193e-03
 -4.6180282e+00   3.2116707e-02
  3.2726893e-01   1.9678907e-02
  4.9360433e-01   1.2453482e-03
  1.9332553e+00   3.1338312e-04
 -8.9581043e-01   6.7748263e-02
 -3.4060466e+00   8.0930237e-03
  2.4448504e+00   7.3220528e-04
 -1.3285134e+00   2.7412395e-03
 -2.9391158e-01   2.3763148e-06
 -5.4177995e+00   3.2994733e-03
 -4.3334403e+00   8.0870008e-03
 -1.7227590e+00   3.2446958e-02
 -4.0205911e-01   8.0919759e-03
  1.2550297e-01   2.7673377e-02
 -8.3340508e-01   9.5459474e-03
 -5.4487902e-01   1.4901168e-03
 -3.5204358e+00   1.7270898e-02
  1.9542620e+00   1.6926645e-04
 -2.6793766e-01   3.4949642e-03
  2.8059044e-01   1.0975964e-02
 -5.5979961e-01   9.4454505e-02
  1.3819495e-02   2.9770485e-03
  4.1300046e-01   1.0994136e-03
 -1.5944388e+00   2.5536329e-03
  3.3176225e-01   7.4731521e-03
  5.6321635e+00   1.0780026e-02
  1.4392120e+00   2.1369580e-02
  1.3025479e-01   5.3079661e-02
 -1.3960247e+00   3.5114691e-02
  5.4026198e+00   6.4899279e-03
  1.1707032e-01   6.1842147e-04
 -3.4802837e+00   9.7305244e-03
 -7.4550107e-02   1.9116484e-03
  1.5530328e-02   1.8789524e-03
  4.1993408e+00   6.1470852e-04
  7.8629321e-01   1.2932532e-02
  1.6358932e+00   1.6700141e-02
  8.4352094e-01   4.4963217e-05
 -2.3142232e-01   1.7080437e-02
 -2.0171058e+00   4.1076742e-05
  1.4158611e+00   4.1542794e-03
 -1.2128862e+00   2.0173335e-02
  6.5950022e+00   5.7010801e-04
 -4.0631893e-01   6.9446690e-02
 -7.2472560e-01   2.8401513e-03
 -1.3509614e+00   7.4133500e-02
 -5.0485778e-01   1.1096907e-02
 -9.4140059e-01   9.8273726e-03
 -2.0590756e+00   1.2407379e-02
 -1.5574311e+00   8.0323085e-02
  2.0930511e-01   9.6482635e-03
 -2.9837502e-02   1.4881567e-03
  4.5226946e-01   1.1304848e-02
 -8.3713245e+00   5.4681889e-04
  1.1264224e-01   3.6154788e-02
  7.8027034e+00   7.1342435e-04
 -4.2641938e-02   8.0023177e-02
  1.3495938e+00   1.5316725e-02
  4.1723847e-01   2.7339614e-03
 -1.2648879e+00   6.7898873e-03
 -2.5200951e+00   5.2298745e-04
 -1.5728061e+00   3.3883546e-03
 -8.4808981e-01   7.2649136e-02
  1.9411452e-01   4.5462735e-02
 -5.7239070e+00   2.4508364e-02
  1.5048653e-01   4.2685824e-03
 -1.9907402e+00   3.9104228e-03
 -3.3260331e-01   5.9354939e-03
 -5.0030785e+00   6.8966666e-04
 -7.9397696e-01   1.1243609e-02
  3.2395148e-01   2.4289871e-03
 -3.8011956e-01   2.9110175e-02
 -5.3643143e-01   9.6971728e-02
 -3.0565584e-02   3.9350208e-02
  1.8676616e-01   3.6852590e-03
 -5.3329682e-01   2.5035921e-03
  1.4682155e+00   6.6198684e-02
 -9.6829910e+00   1.5780743e-04
  1.9333010e+00   1.6918166e-03
 -6.9902186e+00   3.9092262e-04
  5.1136440e-01   5.3160166e-04
  5.3023796e+00   1.5919659e-03
 -2.4187238e+00   1.6874957e-03
  4.6092672e+00   2.2786541e-04
 -4.3663297e+00   4.9875892e-04
 -5.9674835e+00   4.6093911e-03
 -4.8804598e+00   8.8290474e-04
  5.4706860e-01   7.4972250e-03
 -6.9370070e+00   5.7698661e-03
  2.6039021e+00   5.9829152e-04
  2.9696427e-02   3.6716484e-04
  4.3609695e+00   2.8918642e-03
  7.4608487e-01   5.0556273e-03
 -1.7711428e-01   9.0957709e-02
 -4.0833473e-02   2.2018669e-02
  1.7763650e+00   4.4806924e-04
 -3.0162174e-01   1.3927216e-02
 -2.8308976e-01   8.9079127e-02
  1.4013022e+00   6.5154895e-02
 -6.6203070e-01   3.6298974e-05
 -1.6694187e+00   4.8128344e-02
 -5.1747704e+00   2.6458381e-02
  3.8192302e-01   1.0122492e-03
  2.4035844e-01   4.8443817e-02
  2.8944826e+00   4.6973936e-03
  4.1669703e-01   2.5727680e-02
  2.1104879e+00   2.0814745e-02
 -8.3034945e-01   4.6013869e-02
  1.6895645e+00   6.8391156e-03
 -1.3299417e+00   3.2733016e-02
 -1.0333145e+01   8.3815627e-04
 -4.8587742e+00   1.5193322e-03
  5.5922499e+00   2.6397307e-03
  7.5942359e+00   5.6724920e-04
 -9.4173265e-01   3.2984529e-02
 -2.5996428e-02   3.7562549e-02
  2.9776366e+00   3.0087462e-05
  1.0343921e+00   4.8098653e-03
 -7.7527142e-01   1.1963502e-03
 -6.8070066e-01   5.8616092e-03
  2.1871097e+00   5.9944985e-04
  4.0841656e+00   7.6006786e-03
  4.3821859e+00   6.1301203e-03
  5.1043334e+00   7.1669254e-04
  2.2746438e-01   3.7225034e-02
  1.7998534e+00   4.1491701e-04
 -2.7946043e+00   3.4950152e-02
  9.0516791e-02   1.4258361e-03
  1.4218405e+00   9.7512209e-04
 -2.8617682e+00   1.1858852e-03
 -1.2676044e+00   3.6265620e-04
  1.6537086e+00   1.7350424e-02
  1.9333255e+00   2.1595317e-03
 -1.6414101e-01   8.5713407e-03
 -5.7282156e-01   1.3774869e-02
  2.9025886e+00   3.4049051e-04
 -7.3967352e+00   1.2372113e-02
  6.0624996e-04   4.1702408e-02
  9.8037250e-02   2.2574599e-05
 -6.1335597e+00   5.1504222e-04
 -1.2796153e-01   6.9688866e-04
 -2.2521859e-01   1.4463097e-03
 -1.3071876e+00   5.0991545e-03
  6.6738516e-02   2.8040672e-02
 -4.8490053e-01   7.1375675e-02
  9.0330672e-01   1.6220782e-02
 -1.4087523e+01   1.3045605e-03
 -3.0476739e+00   3.5759151e-02
  5.6405276e-01   4.9998751e-04
  7.3375456e-02   1.0684078e-03
 -4.6097672e-01   9.2875930e-03
  3.8540523e+00   1.3760644e-03
 -1.0734957e+00   3.7173994e-04
 -3.7966439e-01   2.5171740e-03
 -7.0946634e-01   2.7700551e-02
 -1.6692761e+00   6.2914996e-04
  4.2349985e-01   8.5924438e-04
  1.4232149e+00   9.6913856e-03
  2.7431810e+00   3.8191779e-03
  2.2448926e+00   6.9677976e-06
  8.4219128e-01   2.6137126e-03
  5.5517808e-02   1.8115102e-03
  7.5083965e-01   2.5472750e-03
 -7.3743516e-01   2.5843598e-03
 -8.9069045e-01   6.2319364e-02
  2.4813678e+00   6.2480029e-03
  7.0116723e-01   2.0990783e-04
  4.6836772e+00   9.0886577e-04
  1.0121727e+00   3.2299805e-02
 -1.0038536e+00   1.2689028e-02
 -9.7416201e+00   5.5010151e-04
 -3.5946281e+00   9.0567151e-04
 -3.0375018e+00   4.4816662e-02
 -5.3853909e-03   4.8675049e-02
  1.9343201e+00   2.6347157e-02
 -3.3280110e+00   2.8838140e-03
 -3.1713513e-01   7.7769919e-03
 -2.2880206e+00   2.6827384e-04
  1.3228469e+00   7.6372430e-02
  7.6036727e-01   6.6722818e-02
 -4.9247684e+00   1.4974086e-03
 -1.2592280e-01   2.7371161e-03
  3.6632497e-02   3.2350523e-04
 -8.5266888e-02   6.0991619e-02
 -6.2797713e+00   6.6068950e-03
 -1.0733490e+00   1.6150555e-04
  1.2079409e+00   8.0229856e-02
 -7.4480100e+00   5.9587159e-04
 -5.9829408e-01   2.6224185e-02
  1.3921988e+00   1.6819831e-03
  5.3065574e-01   2.6716110e-03
 -3.8162434e+00   1.0162629e-03
 -6.1087173e-01   1.7198239e-04
 -1.5921454e+00   7.6518678e-05
 -2.4112320e+00   4.2087416e-04
 -2.2681062e+00   1.5996853e-04
 -1.8513775e+00   4.4293529e-03
  9.9261612e-01   6.1146445e-03
 -4.4291547e-01   2.1816889e-02
  2.2981026e+00   7.1417092e-04
  4.1571975e+00   1.0557658e-02
 -7.1263827e-02   4.5063831e-02
  5.3818393e-01   7.7595003e-02
 -3.9976948e-01   8.4137000e-02
  8.7519473e-01   5.1367465e-02
 -1.3359928e-01   7.3823137e-03
  1.2572865e+00   7.9247402e-03
 -2.4995923e-01   1.4620112e-02
  5.2271724e-01   7.0209473e-02
  1.8949024e-02   1.8372048e-02
 -4.4672433e-01   6.9995848e-03
  5.9066091e+00   2.5273203e-03
 -6.9076997e-01   1.7179433e-02
  7.2398949e-01   2.6940269e-02
 -1.0677252e+00   6.5143965e-03
 -2.7095971e+00   2.5353272e-06
 -6.8046486e-01   4.1931049e-05
 -4.4305375e-01   6.4888517e-03
 -5.0887960e-01   1.4442818e-03
  3.7232707e+00   2.9080883e-03
 -2.8767824e-01   5.0448291e-03
  2.6303947e-01   5.3360179e-02
  4.8055300e-01   9.6947787e-04
  1.6836964e+00   2.7906132e-04
 -2.9684048e+00   6.0533365e-04
 -1.2801183e+00   1.5436625e-03
 -2.4001355e+00   2.5892677e-03
  1.2503711e+00   5.9040594e-03
  2.4089580e+00   8.8383667e-02
 -3.5292596e-01   4.1324575e-03
 -1.4918409e-01   5.3592166e-04
 -8.5076529e-01   2.5347071e-02
 -8.3367536e-03   6.9138971e-03
 -6.2240825e+00   4.3112127e-04
  5.9237951e-01   2.6715451e-03
 -2.1778681e+00   3.4611691e-02
 -2.2985150e-01   3.8333278e-02
  2.1342087e+00   1.5550711e-03
 -3.4233190e-02   2.1949355e-02
 -1.3309646e-01   2.3018051e-02
  3.5381958e-01   8.1509855e-03
 -1.4228994e+00   4.9314670e-02
  2.7857679e-01   1.2417368e-02
 -6.7644912e-01   3.3260856e-02
 -1.3434422e+00   8.8817574e-04
 -9.5300519e-01   5.2893657e-02
 -2.7139965e-02   9.5780846e-03
 -5.4354811e-01   3.1438198e-02
  5.6621760e-01   4.3485478e-02
  1.0810157e+00   2.0874383e-02
  5.0987649e+00   5.3352360e-03
 -1.9437213e-01   7.8469561e-04
 -5.1395655e-01   1.5229292e-02
 -2.7718425e-01   5.3986937e-02
 -1.8738826e-01   1.2380322e-03
 -4.5926517e-01   3.0929649e-02
  2.3661688e-02   9.0620704e-02
  5.3563895e+00   7.0558721e-04
  1.6585371e-01   7.1702787e-04
  1.0117697e+00   4.2598681e-03
 -5.0235766e-01   3.0909952e-02
  5.2562052e-01   2.8046255e-03
 -1.9041312e+00   1.6775422e-02
  5.4770404e-01   1.5406260e-03
  2.9239371e-01   1.8294159e-02
  7.6075435e+00   2.5203757e-04
 -1.1884358e+00   1.9963732e-05
 -1.7298670e-01   5.6962069e-02
  1.2553514e+00   6.9757453e-03
  8.8770956e-01   1.2402527e-02
  1.5517378e+00   3.3240270e-02
  1.7105386e+00   9.8351949e-05
 -2.2815931e+00   1.7444394e-03
 -5.6677685e+00   1.1185850e-02
  3.6539581e-01   4.8279646e-04
 -1.0740795e+00   3.9574504e-02
  8.1676078e-01   4.5302813e-03
 -4.3617167e-02   6.5405592e-02
 -1.8316987e+00   6.8472675e-04
 -5.5820238e-02   1.9853287e-04
 -2.4213129e-01   3.3542842e-03
 -1.0686909e+00   6.7855120e-02
  2.6382411e+00   1.8711975e-02
 -9.8700142e-01   7.1914010e-02
  7.1832162e-01   4.9315291e-03
  8.7161410e-01   4.1566040e-02
 -2.6028216e+00   2.1531682e-02
 -4.8809915e+00   1.1407688e-04
 -6.1194193e-01   2.5998268e-02
  8.5272717e-01   4.9206905e-02
 -1.3549364e+00   6.3827648e-03
 -4.9135752e+00   5.5421534e-04
  1.9487698e-01   1.2021672e-02
 -4.0318198e+00   3.5185907e-03
 -1.3884798e-01   9.1368385e-02
  3.7881408e+00   1.1603391e-03
  6.8075947e-02   8.9059219e-02
  1.9314653e-01   1.0090959e-02
  2.7730682e-01   4.5692343e-03
  7.2417217e-01   9.6204609e-02
 -3.8027114e-01   7.7336123e-03
 -1.9902004e+00   2.9036223e-03
  7.8992254e-01   3.7197717e-02
  2.5575271e-01   7.5729080e-02
 -9.6258700e-01   3.2378410e-03
  3.5063159e-02   2.4420897e-02
  7.7076322e-01   5.2967840e-03
 -1.0559818e+00   1.7051365e-04
  2.4781466e+00   1.2405819e-03
  9.5125329e-01   7.9894260e-02
 -1.9997385e+00   1.9922582e-03
  8.4984905e-01   3.7433218e-02
  4.5808482e+00   2.9283508e-03
 -6.4818054e-01   1.4341974e-03
  4.2065233e-01   2.0122837e-02
  6.7233193e-01   4.4278838e-02
  6.1120033e-01   7.2370619e-03
  4.8492737e+00   5.1980629e-07
 -3.7574127e-01   1.1328022e-02
 -6.5947378e-01   4.9878001e-02
 -7.7883649e-01   4.8286911e-05
 -3.6163063e+00   3.8034958e-04
  1.1565388e+00   5.2987378e-02
 -2.7450782e-01   2.8827384e-02
 -1.7738812e+00   4.0349812e-04
 -1.1614536e+00   4.1622791e-02
 -6.5863651e-01   4.6275027e-02
  1.7513775e+00   6.9559230e-03
  8.3641043e+00   2.6383740e-03
  3.2919478e-01   1.5918983e-03
  1.4422493e+00   1.1927832e-03
 -3.7757032e+00   2.8395798e-05
  1.8299939e-01   4.9958816e-03
  7.6011974e-01   3.7510186e-02
  1.1817145e+00   1.0894104e-04
  8.1571287e-01   3.0198754e-04
  1.1057328e+01   9.4036232e-06
 -5.7200402e-01   6.0010413e-03
  6.5878191e+00   2.8598370e-06
  1.6824286e+00   6.3652014e-03
 -2.3680227e-03   1.7459379e-03
  3.2800642e-01   4.6889968e-02
 -3.2791371e+00   6.6249480e-04
  2.8008189e-02   2.8679736e-02
 -8.9956608e+00   1.9412774e-04
  1.0975112e+00   1.4448834e-02
  2.4782525e-01   3.1650921e-03
  5.7724673e-01   5.6263953e-02
 -1.2029906e-02   3.9637454e-02
 -5.1679935e-02   3.7311058e-04
 -1.7735234e-01   1.2069349e-02
  9.1342640e-01   1.9191500e-03
 -7.6680410e-01   2.6691213e-02
 -1.6904522e+00   7.5630756e-04
  4.6212396e-01   1.1976904e-02
 -7.9979324e-01   3.3578477e-03
 -7.0862579e-01   2.7635578e-02
  1.3222789e+00   1.3822325e-02
  7.2902501e-01   5.3752923e-05
  9.5066404e-01   2.3207353e-02
 -2.9495627e-02   7.3980168e-03
 -1.0083032e+00   2.5851542e-02
 -2.6007335e+00   9.2856698e-03
 -9.9126917e-01   2.4170324e-02
  2.3327618e+00   8.9554250e-04
  3.5833150e-01   2.7851421e-02
  5.7433953e+00   8.3098039e-03
  8.1920147e-01   1.7950427e-02
  2.3162203e+00   2.4238413e-02
 -1.0450072e+00   6.4609367e-03
 -2.3959146e-03   4.7458345e-03
 -7.8514792e-02   9.5276469e-03
  1.0978807e+00   2.5755255e-03
  4.8577353e-01   2.1111190e-02
 -1.5328781e-01   4.7438797e-03
 -2.7601323e+00   7.9353740e-05
 -1.5826627e+00   1.2280568e-02
  2.5275064e-01   1.3173532e-02
 -7.3233515e-01   2.9886758e-02
 -1.4551375e-02   9.4866985e-03
  1.7492938e+00   2.8206938e-04
  3.0770392e+00   5.0681592e-03
 -3.8974062e-01   4.6870895e-03
 -1.3292608e+00   8.1917613e-05
  5.9933454e-01   1.9725064e-04
  4.3351093e-01   7.2622642e-02
  6.1338651e-01   1.4421713e-03
 -2.3975816e+00   3.6751372e-03
 -7.6619148e+00   2.2139186e-04
 -1.0894922e-01   5.6026265e-04
 -1.6051857e+00   7.4712381e-02
 -3.0283186e-01   1.4284017e-03
  3.2876031e+00   2.8306490e-03
 -1.5894131e-01   3.2230723e-04
  9.3909693e+00   5.2059995e-04
  5.5846400e+00   2.0267860e-04
  4.4473293e-01   8.3004430e-02
  8.8417870e-01   1.5241493e-02
  4.8262272e+00   1.2367324e-04
  4.5269939e-01   1.4601480e-02
  5.1691413e-01   3.7888557e-02
 -7.8022069e-01   1.8713230e-04
  5.8022833e-01   4.5919593e-02
 -8.0550879e-01   6.0483115e-03
 -9.6433038e-01   4.1660503e-02
 -7.9463404e-03   5.3647801e-02
  1.0155313e+00   3.1321791e-03
  1.1784770e+00   5.5588619e-03
  8.3429746e-02   6.5847915e-03
 -7.3246479e+00   7.5557956e-04
 -7.2012049e-01   3.0443480e-02
  2.1118991e+00   1.4914002e-02
  6.8711001e-01   1.8712262e-02
 -2.7303433e-01   9.7667361e-03
  5.1732099e-01   1.7742015e-02
 -6.9520934e-03   1.3993463e-03
  3.7480061e+00   1.1158392e-02
  2.2978424e-01   5.9344643e-04
  4.1311102e+00   4.4404422e-03
  4.8268545e-01   3.9312374e-02
  8.7657732e-01   3.8302992e-02
  4.3173232e+00   5.0011557e-03
  2.4574986e+00   9.1008260e-05
  5.2159095e+00   4.0017482e-04
  1.8181568e+00   1.0474736e-04
  5.9802853e-02   1.8560984e-03
 -2.7884105e-01   1.1921950e-02
 -2.6652887e+00   1.1147227e-03
  7.2777432e-01   1.7746970e-02
 -4.1663656e+00   3.1076685e-05
  1.2154806e-01   2.3708739e-03
 -1.1834179e+00   3.9606564e-02
  2.9626298e+00   1.4185123e-02
  8.6055136e-01   3.2283368e-03
 -1.4882429e-01   1.2129052e-02
 -8.5222935e-03   8.0184070e-03
  5.8824253e-01   8.8218777e-03
 -1.3114817e-01   1.4915942e-02
  7.3232663e-01   5.1997993e-02
  4.4896970e+00   2.3079130e-03
  2.2761195e+00   8.4996596e-02
  1.0930950e-01   8.0308830e-03
 -5.1700294e-01   6.8442039e-02
 -5.1730543e-01   1.2346633e-03
 -2.7994869e+00   2.2065262e-06
  6.7820823e-01   2.9378468e-02
  7.0760221e+00   5.5627845e-04
 -2.4369641e-01   4.5360452e-03
 -1.9996214e-01   9.1323355e-04
  3.9617369e+00   8.8171456e-03
  1.0427308e+00   5.2436913e-04
 -6.9406861e-01   1.3584145e-02
 -1.8788512e+00   2.1519179e-03
  4.1034946e+00   3.0190725e-04
  3.1544440e+00   2.1016307e-02
  1.3135984e+00   5.6792326e-02
  6.4230299e-01   1.2435240e-03
 -9.6953452e-01   1.3645464e-02
 -3.3757430e-01   1.8381944e-02
  4.3110427e-02   2.4571585e-02
 -6.3228893e-01   1.4193865e-03
 -1.4070245e+00   4.3756664e-03
  1.3481687e-01   1.8387398e-02
  1.5884198e+00   7.5102306e-04
  6.8615192e-01   1.2955294e-03
 -6.7664251e+00   1.4714621e-05
 -3.7243407e+00   9.7143278e-03
  8.9046635e-02   4.2213976e-02
  5.3509798e+00   3.9281840e-03
  7.8568077e-01   4.9137180e-03
 -1.5035827e+00   8.3937850e-03
  1.7955656e-01   4.5834746e-02
  6.8212181e-01   2.0934803e-02
 -5.1438785e+00   3.5846492e-04
  2.7896267e-01   2.6403862e-04
  6.0554128e+00   8.3756073e-05
  8.3087915e-01   1.4804436e-02
 -8.0410713e-01   2.1520790e-02
  2.0476036e-01   1.5271830e-02
 -8.0566412e-01   2.9072225e-02
  9.9041277e-01   5.1511351e-02
 -1.3264740e+00   1.0936913e-02
  8.2721964e-02   1.2975333e-02
 -3.4902167e-01   5.6063044e-03
  8.5507298e-01   8.5684374e-02
 -3.9314789e-01   1.2768682e-03
  4.1523123e+00   1.7976704e-03
  4.1892419e+00   3.5243577e-04
 -7.0767909e-01   8.5236192e-02
  1.7359004e+00   2.5701692e-04
  8.8102084e-01   7.6347236e-03
  2.4111974e-01   6.0543879e-03
  1.8650070e+00   3.8212545e-02
 -2.2101543e+00   6.8064546e-04
 -6.3096744e-01   1.7823370e-02
 -1.7095047e-01   1.0996030e-02
  1.0893973e+00   1.2833578e-02
  5.1122737e-01   1.7761271e-03
 -9.2525125e-01   3.2761376e-02
  5.3242499e-01   2.4284218e-02
  1.0643973e+00   2.9797422e-02
 -4.9108660e-01   2.5999229e-04
  5.5518317e-01   9.5135989e-03
  1.6409997e+00   1.9722801e-02
 -2.6127094e-01   1.2589167e-02
 -2.0527380e+00   1.9331452e-02
 -2.2005236e+00   8.4297918e-03
  1.4536288e-01   5.9093540e-03
  2.0492839e-02   5.8893878e-02
  1.6980549e+01   1.1253015e-02
  2.1293373e+00   3.1551516e-03
  6.4963281e-02   1.1398030e-02
  1.0604402e+00   6.1086532e-02
  2.5580745e+00   4.3959565e-02
  4.3553548e+00   6.1461942e-05
 -4.3993691e-01   1.2898961e-02
 -8.3605045e-01   1.9848447e-03
 -8.6156905e-01   8.9759611e-02
 -1.2497224e+00   2.1428298e-02
 -4.0071988e-01   6.3076638e-02
  9.3380302e-01   1.5524600e-02
  5.4033905e-01   2.6228062e-03
  1.6343156e+00   3.1707420e-03
  1.1206177e+00   3.8389850e-02
 -3.6305834e-02   2.6852828e-02
  1.1006105e+00   2.7320404e-03
  3.0581899e+00   3.1003803e-02
 -1.2318276e+00   3.5323467e-02
 -2.5950069e+00   6.0855276e-05
  2.9198740e+00   2.5929563e-04
 -1.3666156e-01   5.9004124e-05
  1.0749621e+00   6.5894842e-02
  1.2680094e-01   3.6883939e-02
  2.2387104e-01   1.7021161e-04
  1.0182731e-01   4.5471374e-02
  1.4622663e+00   4.3443717e-02
  3.7873489e-01   2.1968475e-02
 -1.7801114e+00   2.6530916e-02
 -9.5350373e-01   2.0841349e-04
  9.4054498e-02   1.9195152e-02
  1.3902006e+00   5.9318421e-03
 -1.9860595e-01   5.3797262e-03
 -3.5859373e+00   5.3961434e-05
 -3.6968415e+00   3.8361343e-04
 -1.2375531e+00   1.1219062e-04
 -4.5992750e-01   2.0271901e-03
 -8.9504266e-01   2.0211285e-04
  3.8137581e-02   2.3023482e-02
 -2.5949609e+00   5.5457276e-05
 -3.2758510e+00   1.4673627e-05
 -4.7572672e-01   7.5218375e-03
 -6.3552898e-01   3.8970020e-02
  1.0229280e+00   1.9880480e-03
  1.5509558e-01   2.2902269e-02
 -1.5398052e+00   4.6904986e-03
 -4.2595224e+00   4.8187198e-03
  2.6376028e+00   2.3396153e-03
  5.8031794e-02   4.9051289e-03
 -4.2659092e+00   5.3086625e-03
 -1.0925510e+01   1.9617401e-04
  3.5194244e+00   5.0242862e-04
 -6.6700417e-01   5.4800266e-04
  4.2738876e+00   5.9040375e-03
  6.2531823e-01   1.9953000e-04
  6.9106275e-01   9.6152034e-03
 -1.7647471e+00   4.8355009e-06
  1.4258314e+00   2.3053737e-02
 -1.9554039e+00   8.8386760e-06
  2.9076916e-01   3.4309290e-02
  6.2703781e-02   5.6704674e-03
 -2.5982308e-01   1.2427562e-05
  6.8902817e+00   4.0032601e-06
  8.8494533e-01   3.9070728e-03
 -1.0172468e+00   2.4859423e-03
 -1.3056662e+00   2.0369571e-03
 -6.0558904e-02   1.4177837e-02
 -4.0381458e-01   6.9256701e-02
  2.1860077e+00   5.1299795e-03
 -4.0645604e+00   1.2148993e-05
 -5.9792490e+00   6.9783437e-03
 -3.0048773e+00   9.2609189e-05
 -1.4673569e+01   3.1327230e-03
 -5.5474311e-01   4.2523552e-02
 -3.8529110e+00   6.0026976e-04
  1.0344778e+00   8.0306977e-03
  1.7043887e+00   1.3782657e-02
 -1.1236088e+00   1.7377271e-03
 -4.3445344e+00   2.8779107e-04
  6.6858501e+00   5.6648485e-05
 -1.0925803e+00   4.9680781e-02
  3.0379252e+00   9.4471918e-04
 -1.5098948e+00   1.8185929e-04
 -6.2033379e-01   1.6724830e-04
 -4.4169179e-01   1.0394205e-03
  1.1696206e-01   2.3169544e-02
  1.9006108e+00   6.1338707e-03
 -3.1989911e+00   7.1089616e-04
 -4.6759975e-01   6.3551225e-02
 -1.1331408e+00   1.0543345e-03
 -4.8378643e-01   2.4198802e-02
  7.4601156e-01   4.8638839e-02
 -1.5514538e-03   1.0596265e-03
 -4.3463993e-01   1.3812950e-03
  1.9211303e+00   5.1187459e-02
  6.5546602e-02   2.0667493e-02
  2.5853026e+00   9.9058561e-06
 -7.5930603e-02   3.9579380e-02
  1.1735340e-01   3.9393702e-03
 -7.6019734e-02   1.6798874e-02
 -1.7805070e-02   7.6272958e-03
 -6.5990603e-01   9.9241333e-03
  1.7628747e+00   2.8865763e-03
  5.4734454e-02   3.1522520e-02
  9.9098527e-01   9.5497462e-04
 -1.0764019e-01   2.8612819e-02
  1.2953353e+00   2.6910398e-03
  1.1357316e+00   6.8151124e-02
  1.8048462e+00   2.4340127e-03
  3.7082785e-01   5.9683379e-03
 -2.6028030e+00   2.5032324e-04
  1.7390111e-01   1.1645103e-02
 -4.2368851e+00   3.2271596e-04
 -5.2443326e-01   1.5633439e-03
 -4.2910177e-02   2.1602342e-02
  5.2960944e+00   1.0339664e-05
  1.0149499e+00   1.0569897e-02
  1.4856678e-01   1.9591523e-03
 -2.1145609e-01   4.2658076e-03
 -1.6732194e-01   1.0658061e-04
  4.0985641e-01   8.2846062e-04
  5.7083726e-01   6.5918513e-02
  3.9067845e+00   4.0268158e-03
  5.7440181e+00   5.7863834e-04
 -2.2356586e+00   8.8744092e-04
  1.2215121e+00   2.0354812e-03
  3.8905573e-01   2.5825768e-03
 -1.7909094e+00   5.0795818e-04
  5.0017941e-01   5.4308265e-03
 -4.1135178e+00   5.1076091e-03
  2.5061890e-01   1.0470701e-02
 -6.6006130e-01   1.0449007e-02
  3.3206871e+00   7.7110352e-03
  9.2000717e-01   1.9514306e-02
  4.0712703e-02   1.0037916e-03
  6.3291472e-01   1.4283175e-02
 -7.7884513e-01   2.3919249e-02
  2.9187665e+00   5.8506530e-06
 -1.1192411e-01   1.1066832e-02
 -1.4684590e+00   3.7321847e-02
  2.0803739e-01   2.5692523e-02
 -2.0861807e+00   3.1051533e-03
 -6.1255020e-01   2.8998418e-02
 -1.5579555e+00   6.3860853e-04
  3.4939727e-01   1.9831991e-02
 -1.2232820e-01   7.0173978e-03
  3.1690831e+00   7.8642799e-04
 -1.1163039e+00   2.1848809e-03
  2.7224249e-01   8.0989920e-02
  6.0061342e-01   2.6531097e-02
 -2.4890305e-01   4.5726061e-02
  1.4325204e-01   1.4105440e-03
  1.4565870e-01   5.0074998e-02
 -2.6878858e-01   9.1599755e-02
  4.7751483e-02   8.5173652e-02
 -4.3500984e-01   1.6287206e-02
 -1.1256066e-01   3.0684597e-03
  9.6469086e-01   6.2848171e-03
  2.7532011e-02   5.8232304e-02
  2.8335309e-01   1.2491917e-06
  2.3635757e-01   7.0319198e-02
 -5.4188520e-01   9.6689761e-02
 -8.1970034e+00   1.0295858e-04
 -1.9029449e+00   6.3867539e-02
 -8.3455539e-01   5.5119512e-04
 -2.7943721e+00   1.2050682e-04
  1.2419718e-01   8.3028436e-02
 -6.7582947e-01   1.7504852e-02
  2.0998795e+00   2.5881156e-03
  7.1091861e-01   2.5015180e-03
  1.6593002e+00   4.7000952e-02
  1.5754154e-01   3.3514749e-02
  2.0716350e+00   5.3220112e-03
 -1.6077769e-01   7.1985545e-03
 -9.2413521e-01   1.2587584e-04
 -3.2690337e-01   7.2656204e-03
  3.4404066e+00   1.5796967e-02
 -9.6043783e-01   7.0269839e-03
  1.8022056e+00   9.3252130e-04
  4.7124189e-01   1.5007297e-03
 -1.1531414e+00   1.3923250e-03
 -4.8873071e-02   8.9652725e-02
 -5.3860641e-01   9.6670985e-03
 -8.9738809e-02   1.3036038e-03
 -2.3983996e-01   1.0979728e-02
  9.2575032e-01   2.1785926e-02
 -4.6631694e+00   2.2708766e-04
  1.9902326e+00   6.1947713e-04
 -1.6039212e+00   1.6078010e-02
 -7.2647649e-01   8.8151428e-05
  2.6795250e-01   1.4196747e-04
 -3.4974251e+00   3.0455317e-03
  1.7910466e+00   4.6348237e-04
  2.2570206e-02   2.2244364e-02
  3.0723383e+00   1.2901228e-02
  3.9184001e-01   6.3416450e-03
 -4.6225009e+00   4.0829126e-03
 -1.1413351e+00   3.1842127e-02
  4.6164522e+00   1.9817827e-03
 -2.2192137e-01   1.3736472e-03
 -1.0123500e+00   3.2322653e-02
  2.5473604e-01   7.5220717e-03
 -1.3091407e+00   4.2441588e-02
  8.7483597e-01   9.0659130e-03
  6.5773573e+00   4.2870115e-03
  1.0794967e+00   1.5608829e-02
  4.7006026e-01   2.4751334e-03
  2.6895273e-01   3.8222570e-02
 -8.9146692e-01   9.1655277e-02
 -1.5328765e-01   9.9171675e-04
  1.5955748e-01   9.6910298e-02
 -2.5147181e+00   8.1862751e-03
 -2.1355373e-01   6.2305164e-03
  2.3453343e-01   3.8498245e-02
  2.6787874e-01   2.8276280e-04
  2.3418522e+00   7.0756592e-05
 -1.1189560e+00   1.7691999e-03
  1.3780762e-02   8.4296172e-04
  9.3859446e-01   4.1143056e-02
  7.2362882e-01   4.4171091e-02
  3.8881118e+00   2.2895185e-03
  8.5534579e-01   5.0049644e-02
 -4.3561602e-01   5.4050204e-03
 -3.9414890e+00   5.3423777e-04
 -3.5165843e-01   1.0219309e-02
 -1.2269173e+00   4.1232131e-02
  3.8771439e+00   2.0445341e-03
  6.8028647e-01   1.3676227e-02
 -3.8146462e+00   1.2872994e-05
 -1.2478401e-01   1.9735092e-04
 -7.9670072e-02   7.7172644e-02
  2.5936298e+00   1.9991835e-06
  4.4810671e-01   5.8593596e-03
  1.3516999e+00   2.8756016e-04
  1.1806815e+00   2.8604208e-04
 -6.8113112e-01   3.1405635e-02
 -3.7890873e+00   1.2540118e-03
 -6.9212139e-01   5.7444133e-02
 -5.9707719e-01   4.8229579e-02
  3.7545201e-01   2.5252532e-03
  7.8269100e-01   2.6156014e-05
 -7.8150165e-01   1.1155222e-03
 -1.1786441e+00   7.2303065e-03
  1.0454987e-01   3.1482647e-03
  1.0643232e+00   3.5256650e-02
 -3.2842317e+00   2.6083356e-02
  3.6241204e-01   4.6464833e-03
  1.2160343e+00   2.3514217e-02
  3.8404157e+00   2.8901603e-03
 -2.5155991e-01   3.8966415e-03
 -1.2934142e-01   7.5889769e-04
  1.9266082e-02   5.2032836e-02
  1.3297819e+00   1.6118864e-03
  9.8585707e-01   4.6708160e-03
  7.6004165e-01   8.4277315e-05
 -2.9141889e+00   3.6469594e-02
  2.3375032e+00   7.6868604e-03
 -9.3689877e-01   1.3607560e-02
 -9.3948823e-01   5.1333390e-02
 -1.3685476e+00   6.5932289e-02
 -2.6170662e-01   9.8078161e-02
  1.0768055e+00   5.1073059e-03
  6.6214740e-01   2.4855895e-02
  4.1719750e-01   1.5556952e-03
 -3.6046524e-02   1.6423623e-03
  8.7627716e-02   5.2316161e-04
 -1.8657689e-01   8.2846347e-04
  3.5062392e+00   6.2212362e-03
  3.6884651e-01   5.6560482e-05
 -4.0818849e+00   3.6622384e-03
  5.0091929e+00   4.0061382e-04
 -1.2584483e-02   7.7863760e-02
 -1.1050063e+00   5.1321047e-03
 -1.6385098e-01   6.4047808e-03
  6.8974495e+00   1.3976209e-04
  6.4345932e-01   4.7569904e-03
  1.0876534e+00   7.1057886e-02
 -9.3854016e-01   9.2390198e-03
  2.2815711e+00   9.2692571e-03
  2.5477248e-01   6.8802410e-03
 -5.6292874e-01   7.3333368e-02
 -4.7271185e+00   1.9369862e-03
 -2.4246633e+00   1.1362882e-02
 -7.4891746e-02   5.0012595e-03
 -7.2225612e-01   4.9808670e-02
  6.9028735e-01   1.7779203e-02
 -3.2254875e+00   1.3405673e-05
  4.2921224e-01   9.6579567e-02
 -4.1601190e-01   4.1829539e-03
  6.0711706e-01   8.3061777e-02
 -2.0754845e-01   3.3163005e-03
 -2.2194207e+00   1.6443639e-05
  1.2046518e+00   4.1900514e-04
  4.4605918e+00   4.1304864e-03
  3.9502880e-01   9.5333904e-03
 -1.1493392e+00   7.0270382e-02
 -1.5370042e+00   3.7252609e-02
 -1.7430396e-01   3.6263184e-03
 -1.0683445e+00   3.2164566e-02
  2.0558777e+00   9.4367808e-04
  4.1240358e-01   1.2490627e-03
 -4.5693369e+00   7.9376838e-04
  4.9076939e-01   4.3939459e-04
 -4.4573822e+00   2.9123563e-03
  2.8110167e-01   6.7531727e-03
  1.1384203e+00   1.7935418e-02
  1.6384679e+00   1.5130676e-03
  7.8890133e-01   5.5343990e-04
  1.1710253e+00   4.0487431e-02
  3.5046324e-01   8.7113930e-03
 -1.7910305e-02   4.8549175e-02
  4.4493336e-02   3.1832077e-02
 -6.0413384e-01   1.1127695e-04
  6.8654627e-01   8.5832626e-02
  4.1565856e-01   5.2412157e-03
 -8.4155506e-01   5.3862590e-02
 -8.4785271e-01   2.8622875e-02
  9.9769487e+00   3.4666026e-04
 -1.5507358e+00   2.9061937e-03
  2.1328391e-01   1.1836463e-02
 -5.3217196e-01   2.0152959e-03
 -1.8510946e+00   1.5225800e-02
  3.2440469e-01   1.1457400e-02
 -1.1618997e+00   1.5205081e-03
 -4.9672275e+00   8.7808270e-04
 -1.6716790e+00   2.6963711e-02
  2.3265409e-01   8.1539098e-03
  1.2577845e-01   6.1713643e-03
 -7.0635140e-01   4.9199853e-03
 -8.2224220e-01   3.3215217e-02
 -3.0277687e-01   3.1997584e-02
 -1.8592478e+00   2.0071594e-03
 -1.1718816e+00   8.6830206e-02
  5.1299876e-01   6.2513282e-04
  6.5795817e+00   8.0997311e-03
 -3.6269262e-02   1.0705697e-02
 -2.5919572e-01   2.3610957e-03