
***************************************************************
*                 Welcome to use GPUMD                        *
*     (Graphics Processing Units Molecular Dynamics)          *
*                     version 4.4                             *
*              This is the gpumd executable                   *
***************************************************************


---------------------------------------------------------------
Compiling options:
---------------------------------------------------------------

DEBUG is off: Use different PRNG seeds for different runs.

---------------------------------------------------------------
GPU information:
---------------------------------------------------------------

number of GPUs = 1
Device id:                   0
    Device name:             NVIDIA H100 NVL
    Compute capability:      9.0
    Amount of global memory: 93.1221 GB
    Number of SMs:           132

---------------------------------------------------------------
Started running GPUMD.
---------------------------------------------------------------


---------------------------------------------------------------
Started initializing positions and related parameters.
---------------------------------------------------------------

Number of atoms is 72576.
Use periodic boundary conditions along x.
Use periodic boundary conditions along y.
Use periodic boundary conditions along z.
Box matrix h = [a, b, c] is
    6.0273367724e+02    0.0000000000e+00    0.0000000000e+00
    0.0000000000e+00    3.6908329800e+01    0.0000000000e+00
    0.0000000000e+00    0.0000000000e+00    3.4661312750e+01
Inverse box matrix g = inv(h) is
    1.6591075590e-03    0.0000000000e+00    0.0000000000e+00
    0.0000000000e+00    2.7094154773e-02    0.0000000000e+00
    0.0000000000e+00    0.0000000000e+00    2.8850609532e-02
Do not specify initial velocities here.
Have 1 grouping method(s).
There are 73 groups of atoms in grouping method 0.
    2544 atoms in group 0.
    1248 atoms in group 1.
    1092 atoms in group 2.
    936 atoms in group 3.
    1092 atoms in group 4.
    936 atoms in group 5.
    936 atoms in group 6.
    936 atoms in group 7.
    936 atoms in group 8.
    1092 atoms in group 9.
    936 atoms in group 10.
    1092 atoms in group 11.
    936 atoms in group 12.
    936 atoms in group 13.
    936 atoms in group 14.
    936 atoms in group 15.
    936 atoms in group 16.
    1092 atoms in group 17.
    1092 atoms in group 18.
    936 atoms in group 19.
    936 atoms in group 20.
    936 atoms in group 21.
    936 atoms in group 22.
    936 atoms in group 23.
    1092 atoms in group 24.
    936 atoms in group 25.
    1092 atoms in group 26.
    936 atoms in group 27.
    936 atoms in group 28.
    936 atoms in group 29.
    936 atoms in group 30.
    1092 atoms in group 31.
    936 atoms in group 32.
    924 atoms in group 33.
    1008 atoms in group 34.
    936 atoms in group 35.
    936 atoms in group 36.
    1008 atoms in group 37.
    936 atoms in group 38.
    936 atoms in group 39.
    1008 atoms in group 40.
    936 atoms in group 41.
    936 atoms in group 42.
    1008 atoms in group 43.
    936 atoms in group 44.
    936 atoms in group 45.
    1008 atoms in group 46.
    936 atoms in group 47.
    936 atoms in group 48.
    936 atoms in group 49.
    864 atoms in group 50.
    936 atoms in group 51.
    936 atoms in group 52.
    936 atoms in group 53.
    1008 atoms in group 54.
    936 atoms in group 55.
    936 atoms in group 56.
    1008 atoms in group 57.
    936 atoms in group 58.
    936 atoms in group 59.
    1008 atoms in group 60.
    936 atoms in group 61.
    936 atoms in group 62.
    1008 atoms in group 63.
    936 atoms in group 64.
    936 atoms in group 65.
    1008 atoms in group 66.
    864 atoms in group 67.
    1008 atoms in group 68.
    936 atoms in group 69.
    936 atoms in group 70.
    1008 atoms in group 71.
    1152 atoms in group 72.
There are 5 atom types.
    15552 atoms of type 0.
    23328 atoms of type 1.
    16848 atoms of type 2.
    16848 atoms of type 3.
    0 atoms of type 4.
Initialized velocities with default T = 300 K.

---------------------------------------------------------------
Finished initializing positions and related parameters.
---------------------------------------------------------------


---------------------------------------------------------------
Started executing the commands in run.in.
---------------------------------------------------------------

Use the NEP4 potential with 5 atom types.
    type 0 (Ga with Z = 31).
    type 1 (O with Z = 8).
    type 2 (Si with Z = 14).
    type 3 (C with Z = 6).
    type 4 (H with Z = 1).
    radial cutoff = 9 A.
    angular cutoff = 6 A.
    MN_radial = 338.
    enlarged MN_radial = 423.
    enlarged MN_angular = 129.
    n_max_radial = 10.
    n_max_angular = 8.
    basis_size_radial = 12.
    basis_size_angular = 10.
    l_max_3body = 4.
    l_max_4body = 2.
    l_max_5body = 0.
    ANN = 56-96-1.
    number of neural network parameters = 27841.
    number of descriptor parameters = 6050.
    total number of parameters = 33891.
Initialized velocities with input T = 300 K.
Use NVT ensemble for this run.
    choose the Berendsen method.
    initial temperature is 300 K.
    final temperature is 300 K.
    tau_T is 100 time_step.
Time step for this run is 1 fs.
Group 0 in grouping method 0 will be fixed.
Dump thermo every 10000 steps.
Dump extended XYZ.
    for the whole system.
    every 20000 steps.
    into file nvt.xyz.
Run 100000 steps.
    10000 steps completed.
    20000 steps completed.
    30000 steps completed.
    40000 steps completed.
    50000 steps completed.
    60000 steps completed.
    70000 steps completed.
    80000 steps completed.
    90000 steps completed.
    100000 steps completed.

---------------------------------------------------------------
Time used for this run = 1919.98 second.
Speed of this run = 3.78004e+06 atom*step/second.
---------------------------------------------------------------

Integrate with heating and cooling for this run.
    choose the Langevin method.
    average temperature is 300 K.
    tau_T is 100 time_step.
    delta_T is 10 K.
    T_hot is 310 K.
    T_cold is 290 K.
    heat source is group 1 in grouping method 0.
    heat sink is group 72 in grouping method 0.
Group 0 in grouping method 0 will be fixed.
Run 1000000 steps.
    100000 steps completed.
    200000 steps completed.
    300000 steps completed.
    400000 steps completed.
    500000 steps completed.
    600000 steps completed.
    700000 steps completed.
    800000 steps completed.
    900000 steps completed.
    1000000 steps completed.

---------------------------------------------------------------
Time used for this run = 19258 second.
Speed of this run = 3.76861e+06 atom*step/second.
---------------------------------------------------------------

Compute space and/or time average of:
    temperature
    using grouping method 0.
    with sampling interval 1.
    and output interval 100000.
Group 0 in grouping method 0 will be fixed.
Dump thermo every 10000 steps.
Dump extended XYZ.
    for the whole system.
    every 500000 steps.
    into file nemd.xyz.
Run 6000000 steps.
    600000 steps completed.
    1200000 steps completed.
    1800000 steps completed.
    2400000 steps completed.
    3000000 steps completed.
    3600000 steps completed.
    4200000 steps completed.
    4800000 steps completed.
    5400000 steps completed.
    6000000 steps completed.

---------------------------------------------------------------
Time used for this run = 115666 second.
Speed of this run = 3.76476e+06 atom*step/second.
---------------------------------------------------------------


---------------------------------------------------------------
Finished executing the commands in run.in.
---------------------------------------------------------------


---------------------------------------------------------------
Time used = 136844.412547 s.
---------------------------------------------------------------


---------------------------------------------------------------
Finished running GPUMD.
---------------------------------------------------------------

