Automatically generated mesh
      12
Reciprocal lattice
    0.06250000000000    0.00000000000000    0.00000000000000             2
    0.18750000000000    0.00000000000000    0.00000000000000             2
    0.31250000000000    0.00000000000000    0.00000000000000             2
    0.43750000000000    0.00000000000000    0.00000000000000             2
    0.06250000000000    0.33333333333334    0.00000000000000             2
    0.06250000000000   -0.33333333333333    0.00000000000000             2
    0.18750000000000    0.33333333333334    0.00000000000000             2
    0.18750000000000   -0.33333333333333    0.00000000000000             2
    0.31250000000000    0.33333333333334    0.00000000000000             2
    0.31250000000000   -0.33333333333333    0.00000000000000             2
    0.43750000000000    0.33333333333334    0.00000000000000             2
    0.43750000000000   -0.33333333333333    0.00000000000000             2
