       N       E                     dE             d eps       ncg     rms          rms(c)
DAV:   1    -0.522158480148E+03   -0.52216E+03   -0.27312E+02  4138   0.284E+01    0.469E+01
DAV:   2    -0.465859603001E+03    0.56299E+02   -0.19664E+02  4172   0.241E+01    0.227E+01
DAV:   3    -0.466155201444E+03   -0.29560E+00   -0.99821E+01  4414   0.120E+01    0.121E+01
DAV:   4    -0.462288446740E+03    0.38668E+01   -0.10355E+01  4180   0.690E+00    0.659E+00
DAV:   5    -0.464016721937E+03   -0.17283E+01   -0.29289E+01  4304   0.500E+00    0.721E+00
DAV:   6    -0.462745662245E+03    0.12711E+01   -0.15932E+01  4315   0.400E+00    0.521E+00
DAV:   7    -0.462125554490E+03    0.62011E+00   -0.87510E+00  4432   0.272E+00    0.354E+00
DAV:   8    -0.462144348781E+03   -0.18794E-01   -0.60504E+00  4328   0.181E+00    0.352E+00
DAV:   9    -0.462136083358E+03    0.82654E-02   -0.60700E+00  4792   0.167E+00    0.347E+00
DAV:  10    -0.461907645179E+03    0.22844E+00   -0.89779E-01  4440   0.948E-01    0.128E+00
DAV:  11    -0.461922042779E+03   -0.14398E-01   -0.81430E-01  4640   0.697E-01    0.182E+00
DAV:  12    -0.461890254535E+03    0.31788E-01   -0.38616E-01  4328   0.473E-01    0.114E+00
DAV:  13    -0.461882983322E+03    0.72712E-02   -0.39953E-01  4304   0.410E-01    0.103E+00
DAV:  14    -0.461878623442E+03    0.43599E-02   -0.36652E-01  4240   0.368E-01    0.949E-01
DAV:  15    -0.461870869456E+03    0.77540E-02   -0.64978E-02  4384   0.182E-01    0.621E-01
DAV:  16    -0.461868385972E+03    0.24835E-02   -0.64440E-02  4400   0.163E-01    0.356E-01
DAV:  17    -0.461869013817E+03   -0.62784E-03   -0.40166E-02  4120   0.130E-01    0.310E-01
DAV:  18    -0.461869959773E+03   -0.94596E-03   -0.76485E-03  4176   0.739E-02    0.255E-01
DAV:  19    -0.461871036951E+03   -0.10772E-02   -0.29235E-03  4096   0.564E-02    0.185E-01
DAV:  20    -0.461871584078E+03   -0.54713E-03   -0.89516E-04  4136   0.416E-02    0.153E-01
DAV:  21    -0.461871902254E+03   -0.31818E-03   -0.84805E-04  4464   0.236E-02    0.128E-01
DAV:  22    -0.461872423845E+03   -0.52159E-03   -0.11700E-03  4220   0.259E-02    0.273E-02
DAV:  23    -0.461872905800E+03   -0.48196E-03   -0.44211E-04  4352   0.177E-02    0.675E-02
DAV:  24    -0.461873073127E+03   -0.16733E-03   -0.51327E-05  4256   0.753E-03    0.518E-02
DAV:  25    -0.461873290967E+03   -0.21784E-03   -0.61438E-05  3870   0.645E-03    0.431E-02
DAV:  26    -0.461873455798E+03   -0.16483E-03   -0.23278E-04  3684   0.103E-02    0.848E-03
DAV:  27    -0.461873514567E+03   -0.58770E-04   -0.22729E-05  4216   0.501E-03    0.860E-03
DAV:  28    -0.461873592324E+03   -0.77757E-04   -0.46109E-06  2846   0.233E-03    0.576E-03
DAV:  29    -0.461873713265E+03   -0.12094E-03   -0.83261E-06  3564   0.369E-03    0.549E-03
DAV:  30    -0.461873724013E+03   -0.10748E-04   -0.31031E-06  2907   0.170E-03    0.226E-03
DAV:  31    -0.461873733968E+03   -0.99545E-05   -0.33987E-07  2587   0.117E-03    0.196E-03
DAV:  32    -0.461873749071E+03   -0.15104E-04   -0.66021E-07  2638   0.104E-03    0.180E-03
DAV:  33    -0.461873755961E+03   -0.68897E-05   -0.67059E-07  2728   0.723E-04    0.167E-03
DAV:  34    -0.461873759608E+03   -0.36472E-05   -0.28100E-07  2662   0.501E-04    0.327E-04
DAV:  35    -0.461873761888E+03   -0.22802E-05   -0.19196E-07  2640   0.434E-04    0.109E-03
DAV:  36    -0.461873762841E+03   -0.95289E-06   -0.76835E-08  2590   0.329E-04
   1 F= -.47758084E+03 E0= -.47755472E+03  d E =-.522493E-01
