(written by ASE)

8 atoms
2 atom types

0.0      3.0938592337511093  xlo xhi
0.0      2.6793534888093999  ylo yhi
0.0      10.128639420469941  zlo zhi
    -1.5469296168755546  2.4097038500882722e-08 -1.8901275068171038e-16  xy xz yz

Atoms # atomic

     1   2       3.093781541269581  2.2298761379632592e-05      1.9031296428734428
     2   2      1.5468519364425679      2.6793311900480203       6.967449353108413
     3   2 -7.6984477836911986e-05      1.7862628591494305       4.434794151419835
     4   2      1.5468526444462367     0.89309062965996944      9.4991138616548074
     5   1      1.5468526241771092      2.6793308176286774   0.0045507371808007242
     6   1      3.0937822531011836   2.267118072235011e-05      5.0688704474157715
     7   1 -7.7695156591309818e-05      1.7862627338935686      2.5302136008576372
     8   1      1.5468519337674824     0.89309075491583112      7.5945333110926079
