25440
Time=700001.00000886 pbc="T T T" Lattice="203.28868118 0.00000000 0.00000000 0.00000000 36.87600000 0.00000000 0.00000000 0.00000000 37.25814492" energy=-176250.81822205 virial="4502.10051402 -526.06145661 -697.08757663 -526.06145661 3212.33900244 2576.81361243 -697.08757663 2576.81361243 2822.60182518" stress="0.02193647 -0.00187449 -0.00245515 -0.00187449 0.01732019 0.00921216 -0.00245515 0.00921216 0.01591173" Properties=species:S:1:pos:R:3
Ga 109.73279076 0.81810799 34.53871464
Ga 110.28243056 0.90746293 19.91033768
Ga 110.18122614 36.02866949 27.17501997
Ga 109.90644683 36.65590697 12.51878230
Ga 110.10199323 1.79600693 4.94931115
Ga 110.10304346 1.80966175 0.17290396
Ga 110.50801841 35.91905136 22.85162837
Ga 110.24633053 0.50158125 29.88878803
Ga 110.03996549 1.26941927 15.48357046
Ga 110.32741064 36.67018863 7.77694777
Ga 108.13176841 36.01875087 32.13318944
Ga 107.90203748 36.72794917 17.55268806
Ga 108.06622211 0.60202724 24.91408719
Ga 107.80149687 1.49668625 10.30618709
Ga 107.81657076 0.03361693 2.11615927
Ga 107.35060459 36.66089220 35.96684133
Ga 107.64547692 1.57662574 20.67781554
Ga 107.22871106 2.06046981 28.54948592
Ga 107.33638975 36.46137455 14.33621452
Ga 107.51829393 36.74847458 7.50258297
Ga 114.63416831 0.16503230 0.90164766
Ga 114.59531783 0.77140974 23.34202965
Ga 114.61521718 35.67737207 30.76234772
Ga 114.64393610 36.60431684 15.73348799
Ga 114.64922280 1.33244299 8.35220707
Ga 114.83682527 0.48849023 33.41203368
Ga 114.85075415 1.15214391 18.63629308
Ga 114.83565949 35.94028338 26.09410231
Ga 114.79422079 36.55098797 11.25160878
Ga 114.61841240 1.63465830 3.75991354
Ga 112.81183885 1.90160108 35.63261300
Ga 113.00570414 36.23049513 20.73373744
Ga 113.06244727 0.74325060 28.21856609
Ga 112.78815371 1.24786960 13.41851168
Ga 112.93796520 0.13280592 6.02237793
Ga 111.85943676 35.97224285 32.25012264
Ga 112.10766945 36.38615126 17.50747736
Ga 112.12492205 0.86664542 24.86729961
Ga 111.84840215 1.39717855 10.30130763
Ga 111.75669168 0.23193539 2.63713306
Ga 119.26567362 1.92907908 34.17067468
Ga 119.40904192 36.44556092 19.40295277
Ga 119.44445378 0.65277208 26.75852687
Ga 119.37376067 1.14901683 11.77599434
Ga 119.47338238 0.22756547 4.39820368
Ga 119.29676199 0.21275912 36.93090558
Ga 119.49764464 0.79345568 22.09413019
Ga 119.45251791 35.94456926 29.57700252
Ga 119.61190648 36.44177784 14.58266265
Ga 119.35853427 1.22451758 7.28243492
Ga 117.69307636 0.32243893 31.73745127
Ga 117.75261017 1.05285217 17.06235509
Ga 117.48931441 36.12102487 24.58095533
Ga 117.47956161 36.57713740 9.67842384
Ga 117.44901527 1.89540609 2.00843280
Ga 116.42656567 1.69155561 35.68779860
Ga 116.59908095 36.45774020 21.11282906
Ga 116.57150107 0.58772545 28.25900628
Ga 116.60915240 1.10815591 13.41757586
Ga 116.51859367 0.07570271 6.16719259
Ga 124.03780078 1.79919790 0.71167431
Ga 124.17277484 36.12520458 22.59992357
Ga 123.97030248 0.51957493 30.13481694
Ga 124.00736955 1.11605935 15.24573502
Ga 124.05195769 36.83601371 7.80362250
Ga 123.97858012 1.80217055 33.02240724
Ga 124.19526733 36.53240549 17.89373558
Ga 123.97997926 0.67504347 25.33278156
Ga 124.26305155 1.07702397 10.45968325
Ga 124.26057721 0.26571350 3.44121377
Ga 122.43997874 36.86656658 35.32117171
Ga 122.56935742 0.95875612 20.31078578
Ga 122.18888240 35.83095390 27.77263097
Ga 122.38437838 36.53359677 12.69447545
Ga 122.12641260 1.30982387 5.57945815
Ga 121.31468941 0.39930021 32.20504522
Ga 121.25709809 1.13602817 16.77566287
Ga 121.25566551 36.06124566 24.40630743
Ga 121.19910039 36.58405810 9.44395640
Ga 121.15664125 1.77584149 1.94706627
Ga 128.64990005 0.33641653 33.93367647
Ga 129.00759243 0.89836651 18.79129852
Ga 128.73784288 36.00853252 26.32877931
Ga 129.06076855 36.74674094 11.42954700
Ga 128.69862243 1.45431721 4.11335306
Ga 129.06793344 1.56024875 36.59191478
Ga 128.66730790 36.28216483 21.64275488
Ga 128.93745717 0.48173152 29.00576204
Ga 128.97210576 1.23394005 14.18294086
Ga 128.98323617 36.68849013 6.59002165
Ga 127.00086413 1.89866369 31.41714123
Ga 126.99595286 36.37804228 16.29063121
Ga 127.01989862 0.80911490 23.88926011
Ga 127.11813553 1.34954756 9.01121043
Ga 127.01731264 36.84859511 1.66942754
Ga 125.67463527 0.33808529 35.52174733
Ga 126.02896161 0.93757857 20.42933835
Ga 125.91914762 35.92674146 27.71247483
Ga 126.16244477 36.40930837 13.00070238
Ga 126.05797241 1.48315992 5.72696745
Ga 133.71506715 0.35595511 37.11134004
Ga 133.54294137 0.81539453 22.31853234
Ga 133.45924925 2.04764972 29.80359675
Ga 133.58267015 36.53723766 15.00498174
Ga 133.55133265 1.59426416 7.30660990
Ga 133.66507549 0.27861848 32.61602598
Ga 133.43432215 1.14520042 17.68476339
Ga 133.63600945 36.25658339 25.01514992
Ga 133.67441874 36.61062617 10.13456857
Ga 133.76558154 1.63574688 2.68382321
Ga 131.82419879 2.05922237 34.85521307
Ga 131.59562676 36.14161908 19.87485061
Ga 131.72685459 0.49125317 27.59613614
Ga 131.85663713 1.33766477 12.58777407
Ga 131.94043877 36.78657593 5.02727863
Ga 130.67250999 1.83114534 31.41430991
Ga 130.61083572 36.22518009 16.58645929
Ga 130.67509368 0.69379272 23.92070076
Ga 130.69818714 1.38747803 8.97489006
Ga 130.75473715 0.12207557 1.60872460
Ga 138.41417883 1.97599850 33.27947350
Ga 138.24307926 36.28357824 18.28636686
Ga 138.27741063 0.68365691 25.71041333
Ga 138.53251853 1.08145998 11.24678892
Ga 138.29701426 36.77169445 3.37955433
Ga 138.33593796 0.14119004 36.05617110
Ga 138.32118156 0.84911598 21.04067640
Ga 138.45758931 1.97986514 28.47660855
Ga 138.60630451 36.35387793 13.86324582
Ga 138.22442945 1.44397495 6.05302567
Ga 136.49022388 1.60338190 1.03395609
Ga 136.53844949 36.11480361 23.55732879
Ga 136.53667594 0.65486190 31.00590203
Ga 136.53701765 1.02394306 15.82412535
Ga 136.47844935 36.65898047 8.53678915
Ga 135.57398112 1.75987509 34.86051848
Ga 135.38420067 36.30035944 19.94548935
Ga 135.27426041 0.53780870 27.52297512
Ga 135.52600352 1.09125926 12.33690716
Ga 135.48439671 0.08011772 5.03951697
Ga 143.28456808 1.63776779 36.72890528
Ga 142.84471197 36.25091217 21.76343595
Ga 143.04942549 0.43663977 29.11362844
Ga 143.15290623 1.02319635 14.44792565
Ga 143.12477657 36.64975432 7.06409666
Ga 143.14407558 1.90923476 31.87433990
Ga 142.99562892 36.36027448 17.27624138
Ga 143.15490278 0.77930619 24.52106250
Ga 142.89628371 1.27237172 9.58443677
Ga 143.09253476 36.67844545 2.17773252
Ga 141.18197243 0.32228472 34.35169706
Ga 141.17525228 0.84369572 19.44523978
Ga 141.37863630 2.21460012 26.86434759
Ga 141.38641409 36.43015105 12.21012231
Ga 141.44071594 1.43462751 4.41518036
Ga 140.33897381 1.71999833 1.13191967
Ga 140.24831841 36.15821135 23.33950635
Ga 140.16431144 0.45854466 30.92887046
Ga 140.13340168 1.12614582 15.98062891
Ga 140.03768848 36.56555488 8.71060690
Ga 147.65434387 0.31231529 32.75159062
Ga 147.80745991 0.96419622 18.05265941
Ga 147.77857796 2.22419018 25.18743222
Ga 147.80146083 36.60570442 10.34452740
Ga 147.55851434 1.80402613 2.97081845
Ga 147.74411870 1.61715619 35.47796712
Ga 147.88932795 36.13853148 20.50885400
Ga 147.74707682 0.38010598 27.86727784
Ga 147.74680288 1.15271627 13.04655963
Ga 148.02256909 36.68755087 5.59282816
Ga 145.96811121 0.03815689 0.60897789
Ga 145.79410003 0.77839872 22.87182737
Ga 145.93259604 1.91944186 30.32674380
Ga 146.06825194 36.30684091 15.34739566
Ga 145.85195148 1.19593078 7.94707062
Ga 144.87356156 0.18049955 34.52240333
Ga 144.94143907 0.78771215 19.60140390
Ga 144.99712138 2.18880377 26.96879726
Ga 144.92390262 36.38430373 11.95061814
Ga 144.66187136 1.19424255 4.50729222
Ga 152.56571131 0.37067979 36.23321160
Ga 152.30735903 0.81003138 21.28836164
Ga 152.32078828 2.06549339 28.66300854
Ga 152.52358306 36.54749020 13.64507683
Ga 152.45595867 1.49110146 6.23305856
Ga 152.35289443 0.40411457 31.61481605
Ga 152.46180738 0.72909237 16.58794553
Ga 152.59807777 2.18833575 24.13639944
Ga 152.56748142 36.69908329 9.10097433
Ga 152.44667620 1.42552601 1.83371183
Ga 150.66095346 1.93850269 33.84944438
Ga 150.66754867 36.25174311 18.84309709
Ga 150.73882627 0.49529067 26.36785529
Ga 150.88041323 1.15903334 11.36317883
Ga 150.74533115 36.72214952 4.13106184
Ga 149.56038204 0.03865437 0.74083715
Ga 149.73224877 0.66191516 22.85336487
Ga 149.63565197 1.80070117 30.34738435
Ga 149.64617642 36.35078059 15.54401118
Ga 149.54373649 1.36190320 8.06218215
Ga 157.41069518 1.85383182 32.20244908
Ga 157.17430009 36.26646624 17.07926483
Ga 157.46396395 0.73788643 24.89836360
Ga 157.26096659 1.31372510 9.73208637
Ga 157.27912221 0.03052992 2.39928047
Ga 157.32644810 0.25670149 35.10815466
Ga 157.29880632 0.77944697 19.94419210
Ga 157.40705929 1.94396042 27.70333707
Ga 157.22938030 36.37136005 12.69576154
Ga 157.43493016 1.32856179 5.28932661
Ga 155.28512587 1.89132548 0.16963521
Ga 155.34078652 2.14724351 22.56356973
Ga 155.38086372 0.27079989 29.94874373
Ga 155.58545428 0.99527917 14.96250134
Ga 155.42845972 36.72369197 7.50451805
Ga 154.38181090 1.76917523 33.72919980
Ga 154.32959131 36.23630095 18.87868557
Ga 154.40216315 0.45035724 26.41481899
Ga 154.39804102 1.42415040 11.34362459
Ga 154.53305051 36.80921203 3.92312997
Ga 161.89463958 1.81496594 35.74042557
Ga 162.00777211 2.21659824 20.98679499
Ga 162.03337884 0.35722514 28.30537581
Ga 162.06894381 0.95974655 13.35331978
Ga 161.92606044 36.68119021 5.88641294
Ga 162.22064987 1.96587965 30.94535119
Ga 161.89743953 36.18689566 16.09569798
Ga 162.18760871 0.45567002 23.72105584
Ga 162.00227709 1.12837597 8.76607500
Ga 161.83515838 0.13825353 1.25584984
Ga 160.11102510 0.39115527 33.29894089
Ga 159.99077121 0.62464870 18.37174437
Ga 160.25814282 2.01957291 25.99061717
Ga 160.23314698 36.58001877 11.14752062
Ga 160.08880058 1.61830265 3.62765845
Ga 159.09464166 1.50483857 0.16906857
Ga 159.11613076 2.28886762 22.28309093
Ga 159.06369304 0.17509530 29.88916753
Ga 159.09034144 0.84598642 14.87487883
Ga 159.08557983 36.72818404 7.50197130
Ga 166.74309342 0.18113222 31.71756376
Ga 166.66397507 0.93270458 16.75320782
Ga 166.38212393 2.20686065 24.42797900
Ga 166.46135723 36.59292033 9.38923760
Ga 166.81961803 1.44846570 2.07576127
Ga 166.57295888 1.45005995 34.45035608
Ga 166.59067431 2.23449582 19.78614800
Ga 166.62226530 0.48505048 26.90682518
Ga 166.80304463 1.05743216 12.25385638
Ga 166.75634741 36.49742313 4.90585762
Ga 164.93561878 0.05884575 36.92484590
Ga 164.78793672 0.76785355 21.92734739
Ga 164.84933426 2.05320313 29.40543944
Ga 164.85789822 36.13593990 14.49070589
Ga 164.84943106 1.25819463 7.03148142
Ga 163.77024014 0.31813811 33.44928398
Ga 163.68647452 0.60657720 18.47161866
Ga 163.70758270 2.08794235 25.96900862
Ga 163.77940362 36.36364786 11.10395447
Ga 163.91883554 1.18868113 3.62322942
Ga 171.33311900 0.16398831 35.29382692
Ga 171.31006486 0.92014221 20.27740324
Ga 171.18216549 2.00852210 27.68065073
Ga 171.43008158 36.53960756 12.97883852
Ga 171.51540906 1.44338297 5.59393545
Ga 171.39923880 0.28415016 30.49498576
Ga 171.58071304 1.06333374 15.81018708
Ga 171.47820573 2.11487874 23.16893265
Ga 171.68778748 36.78526182 8.23774525
Ga 171.52453720 1.41961447 0.78165962
Ga 169.42598885 1.66673784 32.76005896
Ga 169.29718618 2.38228742 18.09978114
Ga 169.47420757 0.71966048 25.29768399
Ga 169.57892331 1.22414475 10.46622087
Ga 169.64823595 36.83221641 3.11708431
Ga 168.62554113 36.85576631 36.95872657
Ga 168.25137959 0.83875309 21.95858375
Ga 168.43324319 1.97127894 29.28812447
Ga 168.53776376 2.65298585 14.53972496
Ga 168.59546390 1.32952845 7.15916803
Ga 176.00790001 1.90323051 31.40125222
Ga 176.22079409 2.58751087 16.52900719
Ga 176.07672982 0.84930933 23.83834705
Ga 175.86139095 1.41551576 8.76470795
Ga 175.97875043 0.06155343 1.59036212
Ga 176.04753678 0.38066784 34.01188007
Ga 176.31304386 0.65488227 19.17082686
Ga 176.29357565 1.94204826 26.47566549
Ga 176.34932852 2.59917185 11.62887083
Ga 176.28050596 1.34375081 4.24012463
Ga 174.25074808 1.67626584 36.40476225
Ga 174.27175306 2.27253126 21.62987961
Ga 174.34154246 0.38481789 28.81657762
Ga 174.37064501 0.99437235 14.15137664
Ga 174.37397591 36.64815105 6.38366973
Ga 173.14690395 1.60399578 32.95690017
Ga 173.42932383 2.42675634 17.99380153
Ga 173.31148636 0.56660434 25.67528537
Ga 173.29279230 1.23721446 10.74513605
Ga 173.21227256 36.74836619 3.29542855
Ga 180.77759203 1.73614422 34.85446602
Ga 180.79150112 2.36563530 19.97485035
Ga 180.86280076 0.46807041 27.37052393
Ga 180.90647850 1.11442154 12.61526910
Ga 180.89588595 36.62625845 4.96928029
Ga 180.73573814 36.74697522 0.32576353
Ga 180.94129639 0.73140889 22.70266109
Ga 180.73846918 1.84303152 29.95301874
Ga 180.69534269 2.47536291 15.41872280
Ga 180.95746495 1.19580279 7.66943426
Ga 178.90832628 0.22127216 32.54778407
Ga 179.07720636 0.91201496 17.82666529
Ga 179.29968742 2.20597574 25.10369850
Ga 179.04224859 36.48591673 10.13726552
Ga 179.04614989 1.17046577 2.69661459
Ga 177.89274330 1.71075284 36.29748985
Ga 177.84680094 2.14161760 21.58649324
Ga 177.68705039 0.31707164 29.09197433
Ga 177.97032262 0.95946830 14.20129466
Ga 177.96272123 36.66572875 7.01557953
Ga 185.52618350 0.26454571 30.84324003
Ga 185.52618812 0.87915554 15.93998184
Ga 185.52619387 2.10835373 23.39160490
Ga 185.52618993 2.72295608 8.48835513
Ga 185.52618523 1.49375664 1.03671374
Ga 185.55386468 1.68813779 33.58086683
Ga 185.55386899 2.30274135 18.67760300
Ga 185.55387462 0.45893191 26.12923780
Ga 185.55387344 1.07354381 11.22597651
Ga 185.55388467 36.72034343 3.77434269
Ga 183.72597636 0.05401809 35.94927543
Ga 183.72600749 0.66860700 21.04601233
Ga 183.72606180 1.89779143 28.49766818
Ga 183.72600713 2.51241295 13.59440525
Ga 183.72604242 1.28322256 6.14276798
Ga 182.65645143 0.19768370 32.46431308
Ga 182.65646148 0.81224789 17.56105335
Ga 182.65648895 2.04144648 25.01268926
Ga 182.65644490 2.65604207 10.10942333
Ga 182.65648301 1.42687758 2.65774841
Ga 190.22377310 0.12177798 34.30537927
Ga 190.22377453 0.73637843 19.40212103
Ga 190.22377603 1.96557752 26.85375071
Ga 190.22377508 2.58017841 11.95049308
Ga 190.22377553 1.35097862 4.49886268
Ga 190.25145752 1.54536379 37.04300476
Ga 190.25145885 2.15996390 22.13974684
Ga 190.25145775 0.31616277 29.59137680
Ga 190.25145862 0.93076425 14.68811888
Ga 190.25145968 2.77456413 7.23648977
Ga 188.42359626 1.75503166 31.95979313
Ga 188.42359736 2.36963316 17.05653453
Ga 188.42359875 0.52583231 24.50816370
Ga 188.42359866 1.14043357 9.60490631
Ga 188.42359896 36.78723360 2.15327525
Ga 187.35404934 0.05488633 35.92644782
Ga 187.35405066 0.66948456 21.02319058
Ga 187.35405318 1.89868263 28.47482390
Ga 187.35405230 2.51328587 13.57156402
Ga 187.35405373 1.28408663 6.11993389
Ga 194.92138045 1.82280286 30.31589411
Ga 194.92138044 2.43740288 15.41263614
Ga 194.92138046 0.59360288 22.86426511
Ga 194.92138053 1.20820288 7.96100715
Ga 194.92138046 36.85500288 0.50937815
Ga 194.94906257 0.17338785 33.05351364
Ga 194.94906257 0.78798786 18.15025567
Ga 194.94906262 2.01718785 25.60188465
Ga 194.94906262 2.63178786 10.69862669
Ga 194.94906263 1.40258786 3.24699769
Ga 193.12119164 1.61225759 35.42193263
Ga 193.12119186 2.22685760 20.51867460
Ga 193.12119187 0.38305750 27.97030372
Ga 193.12119190 0.99765764 13.06704574
Ga 193.12119204 2.84145762 5.61541666
Ga 192.05164219 1.75590902 31.93696261
Ga 192.05164211 2.37050921 17.03370458
Ga 192.05164263 0.52670907 24.48533358
Ga 192.05164299 1.14130926 9.58207573
Ga 192.05164253 36.78810928 2.13044636
Ga 199.61898691 1.68002630 33.77803544
Ga 199.61898691 2.29462630 18.87477747
Ga 199.61898691 0.45082630 26.32640645
Ga 199.61898691 1.06542630 11.42314848
Ga 199.61898691 2.90922630 3.97151950
Ga 199.64670624 0.03062704 36.51562939
Ga 199.64670624 0.64522704 21.61237142
Ga 199.64670624 1.87442704 29.06400040
Ga 199.64670624 2.48902704 14.16074244
Ga 199.64670624 1.25982704 6.70911345
Ga 197.81876642 0.24028235 31.43246026
Ga 197.81876642 0.85488235 16.52920229
Ga 197.81876642 2.08408235 23.98083127
Ga 197.81876642 2.69868235 9.07757330
Ga 197.81876642 1.46948235 1.62594432
Ga 196.74922407 1.61313037 35.39910457
Ga 196.74922407 2.22773037 20.49584660
Ga 196.74922407 0.38393037 27.94747558
Ga 196.74922407 0.99853037 13.04421762
Ga 196.74922407 2.84233037 5.59258863
Si 14.52099233 0.00000031 37.25814489
Si 14.52099466 1.53649952 2.66129767
Si 14.52099498 0.00000016 5.32259306
Si 14.52099547 1.53649931 7.98388815
Si 14.52099487 36.87599993 10.64518444
Si 14.52099482 1.53649979 13.30648115
Si 14.52099482 0.00000048 15.96777622
Si 14.52099429 1.53649962 18.62907206
Si 14.52099285 0.00000045 21.29036743
Si 14.52099064 1.53649964 23.95166432
Si 14.52099294 0.00000026 26.61296128
Si 14.52099112 1.53649980 29.27425730
Si 14.52099368 36.87599885 31.93555337
Si 14.52099088 1.53649918 34.59684965
Si 9.49447741 0.00000016 37.25814465
Si 9.49447743 1.53650016 2.66129575
Si 9.49447743 0.00000016 5.32259176
Si 9.49447744 1.53650016 7.98388777
Si 9.49447743 0.00000015 10.64518414
Si 9.49447742 1.53650016 13.30648016
Si 9.49447741 0.00000016 15.96777618
Si 9.49447744 1.53650016 18.62907218
Si 9.49447737 0.00000016 21.29036818
Si 9.49447736 1.53650015 23.95166421
Si 9.49447737 0.00000016 26.61296023
Si 9.49447741 1.53650016 29.27425662
Si 9.49447741 0.00000014 31.93555264
Si 9.49447740 1.53650016 34.59684864
Si 12.00775006 1.53644895 0.88718713
Si 12.00775027 3.07294885 3.54848349
Si 12.00775067 1.53644886 6.20977937
Si 12.00775056 3.07294887 8.87107531
Si 12.00775045 1.53644899 11.53237125
Si 12.00775040 3.07294899 14.19366742
Si 12.00775042 1.53644898 16.85496338
Si 12.00774997 3.07294886 19.51625915
Si 12.00775004 1.53644899 22.17755553
Si 12.00774965 3.07294880 24.83885177
Si 12.00774953 1.53644867 27.50014792
Si 12.00774967 3.07294867 30.16144397
Si 12.00774988 1.53644883 32.82273981
Si 12.00774993 3.07294908 35.48403595
Si 6.98087576 0.00005109 1.77410904
Si 6.98087577 1.53655109 4.43540505
Si 6.98087576 0.00005109 7.09670106
Si 6.98087576 1.53655109 9.75799708
Si 6.98087576 0.00005109 12.41929309
Si 6.98087577 1.53655109 15.08058910
Si 6.98087576 0.00005109 17.74188548
Si 6.98087576 1.53655109 20.40318149
Si 6.98087576 0.00005109 23.06447750
Si 6.98087576 1.53655109 25.72577353
Si 6.98087576 0.00005109 28.38706954
Si 6.98087576 1.53655109 31.04836555
Si 6.98087576 0.00005109 33.70966156
Si 6.98087576 1.53655109 36.37095794
Si 24.56904441 36.80446272 37.06923793
Si 24.65258597 1.46342551 2.72415722
Si 24.50772741 36.75103851 5.29962739
Si 24.48435053 1.50384760 8.00265183
Si 24.55589720 0.01548302 10.65676543
Si 24.51005826 1.46520189 13.41653348
Si 24.69985782 36.70519597 15.91606978
Si 24.45558742 1.61934638 18.56030743
Si 24.59134748 36.82698393 21.27617762
Si 24.59218694 1.40098102 24.00091617
Si 24.48099088 0.00594830 26.61525976
Si 24.42638895 1.51389273 29.25538393
Si 24.68056309 36.76035690 31.87953327
Si 24.62203148 1.55926554 34.60474930
Si 19.54744478 36.87597486 0.00001777
Si 19.54747525 1.53649146 2.66131380
Si 19.54749521 36.87599981 5.32258959
Si 19.54753766 1.53646893 7.98388041
Si 19.54753208 36.87599408 10.64514144
Si 19.54742833 1.53651084 13.30647627
Si 19.54749791 36.87597880 15.96782783
Si 19.54756699 1.53650617 18.62906753
Si 19.54746489 0.00004635 21.29034778
Si 19.54746611 1.53652228 23.95164125
Si 19.54752399 36.87598208 26.61299871
Si 19.54751163 1.53642070 29.27427757
Si 19.54759990 0.00000153 31.93551448
Si 19.54743904 1.53648484 34.59679625
Si 22.05734230 1.52793005 0.80348553
Si 22.08465915 3.00712689 3.49186227
Si 22.08462124 1.45340963 6.16574275
Si 22.01210358 3.03811401 8.95598291
Si 22.08139982 1.54140467 11.57568597
Si 22.03712306 3.00499780 14.18097814
Si 22.13845629 1.50588695 16.73337699
Si 22.11902528 3.08766218 19.52840405
Si 22.10994460 1.46392259 22.16203229
Si 22.08145607 3.00430096 24.80372749
Si 21.99809880 1.61272814 27.44437108
Si 21.90379273 3.13261232 30.08798947
Si 22.09776229 1.57331030 32.88450053
Si 21.93535705 2.97382216 35.51543119
Si 17.03424673 0.00005237 1.77411380
Si 17.03425024 1.53654929 4.43540830
Si 17.03425453 0.00004926 7.09670172
Si 17.03425280 1.53655045 9.75799431
Si 17.03424120 0.00005076 12.41929121
Si 17.03424558 1.53655189 15.08059157
Si 17.03426046 0.00005673 17.74188781
Si 17.03425994 1.53655137 20.40317555
Si 17.03424418 0.00005255 23.06447624
Si 17.03424829 1.53654901 25.72577430
Si 17.03425881 0.00004923 28.38707190
Si 17.03425811 1.53654737 31.04836665
Si 17.03425216 0.00004974 33.70965787
Si 17.03422808 1.53655299 36.37095755
Si 34.65508259 36.86442994 0.03049547
Si 34.55073442 1.58495883 2.86067040
Si 34.56254272 36.85019192 5.49636925
Si 34.57360403 1.66177407 8.07616130
Si 34.51140315 0.04560892 10.75748925
Si 34.69704654 1.54940138 13.31357503
Si 34.67276307 0.04401585 16.11112111
Si 34.74019688 1.62374572 18.55812463
Si 34.74876150 0.04735171 21.32762776
Si 34.58253223 1.39260290 24.01049971
Si 34.74439693 36.78625909 26.74309547
Si 34.63224328 1.45829373 29.27187650
Si 34.64219985 0.04550710 31.93839925
Si 34.59595414 1.60458167 34.61701683
Si 29.59369252 0.27292466 0.15912441
Si 29.61482818 1.58794820 2.79147832
Si 29.59841587 0.14483036 5.43082437
Si 29.55366515 1.56478832 8.08240318
Si 29.52900461 36.85838247 10.87419883
Si 29.48314710 1.50966021 13.49196193
Si 29.71276629 0.01613127 15.99783662
Si 29.49332998 1.48386512 18.53500110
Si 29.39596585 0.02454384 21.20527126
Si 29.58913938 1.49648724 24.09999421
Si 29.53519017 0.09105622 26.73333125
Si 29.59104933 1.59264654 29.16978434
Si 29.60013306 36.83519147 31.96420134
Si 29.66983501 1.59438941 34.74437067
Si 32.14862349 1.54673940 0.94143336
Si 32.18091820 3.05862385 3.65583911
Si 32.07122394 1.56031268 6.13718737
Si 32.09473572 3.15647327 8.86324395
Si 31.93843440 1.52555749 11.54722875
Si 32.12442301 3.13542938 14.11655549
Si 32.19202025 1.58021789 16.89111840
Si 32.12197081 3.17836375 19.42273548
Si 32.08131604 1.55834842 22.14088144
Si 32.13381061 3.12181638 24.84198480
Si 32.10056738 1.43204940 27.47962789
Si 32.03627988 3.07427759 30.21562481
Si 32.14301062 1.51097786 32.80709940
Si 31.99774193 3.06859344 35.51066747
Si 27.05347627 0.04154674 1.67911409
Si 27.18291293 1.59462499 4.46967568
Si 27.12124600 0.08284636 7.08327700
Si 27.06517948 1.55447264 9.76802212
Si 27.12369740 0.15962863 12.44936450
Si 27.11550388 1.51001452 15.21713693
Si 27.11454990 36.81701550 17.77089157
Si 26.86758798 1.54743530 20.35146164
Si 26.92569152 36.79671737 23.16724467
Si 27.03928271 1.58519260 25.74635691
Si 27.03202868 0.00321215 28.35411104
Si 27.03239282 1.59453346 30.96544498
Si 27.06389571 0.06105822 33.55845932
Si 27.09452779 1.73022830 36.35942281
Si 44.64013301 0.05645782 0.12298267
Si 44.59410602 1.48008904 2.72249620
Si 44.58764544 0.02543840 5.54165890
Si 44.63210865 1.41769829 8.15950159
Si 44.57647242 0.01600098 10.97720840
Si 44.79830097 1.50448178 13.43667026
Si 44.70492166 36.85769595 16.04237729
Si 44.59165774 1.59965068 18.67375406
Si 44.62180283 0.15538675 21.27047550
Si 44.75468547 1.57962862 24.05450611
Si 44.68165797 36.84583097 26.79822120
Si 44.69888712 1.58954765 29.39745650
Si 44.49084801 0.08545048 32.02148051
Si 44.69624221 1.61690931 34.73447655
Si 39.76902637 36.86935511 0.23951576
Si 39.54067849 1.78317302 2.73681327
Si 39.60550017 0.15799346 5.35512037
Si 39.72551660 1.59207323 8.09065620
Si 39.59741822 36.83287577 10.87917793
Si 39.76252369 1.73102900 13.40100816
Si 39.65607504 0.03057565 16.00222965
Si 39.71254598 1.62470488 18.78891589
Si 39.62451247 0.08835416 21.39318373
Si 39.71003284 1.68216574 24.14054749
Si 39.70386248 0.06169537 26.72372408
Si 39.58680705 1.66850132 29.45874860
Si 39.63532005 36.75682685 32.18428518
Si 39.70146082 1.61678047 34.71813964
Si 42.07891104 1.62608812 1.12438971
Si 42.36917126 3.01210390 3.70908576
Si 42.14574676 1.43392007 6.44437903
Si 42.31201124 3.08158658 9.05852706
Si 42.14754956 1.52112616 11.81750118
Si 42.21860280 3.25894510 14.34127366
Si 42.11322000 1.70358375 16.87884321
Si 42.13603630 3.12232571 19.57047966
Si 42.13197186 1.58378527 22.28001959
Si 42.17650243 3.19468807 25.07031454
Si 42.17749071 1.58910302 27.77281409
Si 42.21518885 3.16647244 30.31413521
Si 42.17482421 1.65206117 33.05097841
Si 41.96192960 3.22029656 35.50535271
Si 37.14148818 0.24307642 1.81388749
Si 37.04440171 1.62320402 4.58604657
Si 37.11100751 0.06127924 7.25028969
Si 37.11140488 1.63084767 9.98530361
Si 37.04338250 0.00604978 12.32633704
Si 37.15262284 1.57755503 15.08756692
Si 37.20776296 0.04919473 17.74810099
Si 37.22305855 1.64679918 20.48929917
Si 37.28856943 36.80438215 23.25417330
Si 37.15124656 1.52189641 25.85392265
Si 37.17337663 0.07026227 28.61113255
Si 37.20906611 1.62148061 31.25592480
Si 37.21657540 0.01800340 33.74738337
Si 37.16614557 1.60114711 36.41166308
Si 54.63561535 0.04567728 0.09004222
Si 54.75900688 1.66391475 2.81760665
Si 54.60280588 36.77260473 5.57265754
Si 54.66073113 1.44634845 8.01768682
Si 54.66056433 36.82113099 10.75923738
Si 54.75342452 1.46362878 13.54435455
Si 54.73062990 0.09613911 16.09789353
Si 54.62876354 1.52879193 18.68300594
Si 54.75472945 0.05282616 21.33858687
Si 54.69095591 1.62155451 24.11015877
Si 54.73947316 0.00849958 26.71864275
Si 54.77224568 1.49361270 29.36369644
Si 54.67395618 0.09677829 32.20168534
Si 54.55573982 1.74457212 34.69603915
Si 49.72067786 0.03030013 0.14123374
Si 49.58032615 1.52290662 2.64296378
Si 49.68692836 0.05199347 5.44704367
Si 49.74348580 1.59674355 8.04539330
Si 49.64195844 36.83249161 10.75390048
Si 49.74078240 1.57605616 13.48870516
Si 49.71528224 0.05191119 16.02906695
Si 49.68280657 1.52609480 18.63024453
Si 49.77089197 0.04589981 21.51032695
Si 49.53412590 1.63812974 24.17978961
Si 49.67315051 36.83351931 26.81543383
Si 49.74648420 1.59860248 29.43963569
Si 49.72614352 0.07085573 31.95403971
Si 49.53207558 1.54949254 34.59725362
Si 52.22941699 1.72918007 1.18825298
Si 52.26638091 3.19274016 3.86130350
Si 52.17653035 1.57990926 6.28855520
Si 52.32034122 3.06321827 9.09200548
Si 52.36278719 1.43712964 11.67782610
Si 52.15382617 3.12280232 14.40730526
Si 52.19341443 1.56453135 17.06785477
Si 52.26260817 3.11351453 19.70392641
Si 52.21900140 1.66142902 22.35797850
Si 52.08310578 3.22526849 25.01545721
Si 52.31355161 1.47283215 27.51172116
Si 52.14855688 3.08746946 30.13864345
Si 52.16568188 1.57614144 32.88319526
Si 51.99590919 3.12689099 35.56607661
Si 47.12646176 0.06748639 1.85473911
Si 47.09642759 1.61999768 4.53916175
Si 47.15270671 36.80827902 7.27973089
Si 47.21769205 1.46685483 9.79138606
Si 47.17095488 36.86482720 12.65279493
Si 47.21176565 1.63623760 15.26259682
Si 47.11686835 0.02362422 17.87266459
Si 47.13325892 1.66470178 20.45295176
Si 46.99188168 0.02351105 23.18436670
Si 47.21929597 1.64040039 25.93256914
Si 47.16951268 0.08894042 28.43271863
Si 47.20096125 1.50498233 31.17328505
Si 47.14508667 0.00640355 33.75787469
Si 47.21807736 1.58590320 36.43744323
Si 64.69565529 36.83493470 0.35140841
Si 64.63902671 1.88111358 2.69352430
Si 64.79585012 0.02749064 5.50620889
Si 64.65699572 1.46580981 8.19706892
Si 64.54265404 36.74919707 10.88224743
Si 64.58685988 1.70793582 13.47580074
Si 64.66642583 36.81409691 16.05670696
Si 64.73966728 1.65036707 18.76910433
Si 64.81541045 0.07503073 21.31191849
Si 64.69895606 1.61975658 24.18339670
Si 64.76836019 36.84827351 27.03854115
Si 64.84560649 1.60362856 29.41341025
Si 64.71479320 36.82597736 32.16593097
Si 64.80645765 1.44868443 34.88253973
Si 59.66295185 0.11597527 0.09026956
Si 59.71771402 1.72551440 2.79010606
Si 59.73896282 0.02246490 5.40600936
Si 59.83488336 1.64270862 8.02236994
Si 59.59198559 36.80511144 10.81888043
Si 59.58250750 1.48556393 13.46454972
Si 59.78152744 0.02434232 16.07577901
Si 59.77767589 1.51370224 18.87791494
Si 59.69805414 36.85532789 21.52649173
Si 59.75028482 1.46035578 24.29213125
Si 59.87130300 0.14767129 26.80059136
Si 59.59155229 1.68390202 29.53685764
Si 59.73978643 0.07704671 32.11509401
Si 59.66687272 1.57171400 34.78709363
Si 62.21374410 1.53165354 1.14023112
Si 62.28466487 3.16881367 3.76393286
Si 62.32675641 1.50127285 6.37948990
Si 62.10787739 3.07750490 9.01422368
Si 62.19810379 1.55994419 11.90466172
Si 62.14804118 3.16449604 14.50115782
Si 62.24452156 1.42316661 16.97771067
Si 62.27613814 3.05805448 19.60750092
Si 62.23694797 1.55054889 22.28134452
Si 62.15658008 3.17014227 24.88328824
Si 62.27168365 1.68488943 27.77393340
Si 62.24295367 3.25058335 30.32362529
Si 62.25743193 1.51155160 33.04973720
Si 62.23154672 3.21910363 35.73518281
Si 57.25718442 0.06655947 2.01586974
Si 57.27868606 1.44703288 4.62814010
Si 57.17164305 36.80261249 7.17927741
Si 57.24355454 1.61351298 9.87947040
Si 57.05035618 36.81777912 12.47807447
Si 57.21467431 1.48198058 15.19120485
Si 57.21167510 36.85762042 17.93616237
Si 57.22656877 1.66236308 20.69930648
Si 57.21113371 0.09362345 23.27665448
Si 57.30818550 1.70710115 25.90339572
Si 57.21735944 36.78230586 28.64614522
Si 57.16652233 1.61017893 31.25510839
Si 57.22720196 0.13243366 33.94035165
Si 57.14050833 1.60374831 36.50137489
Si 74.67335502 0.05001906 0.32926772
Si 74.70162064 1.42636223 2.83697309
Si 74.79182281 0.07675116 5.57790700
Si 74.74624990 1.58112803 8.31434430
Si 74.75247239 0.04310410 11.01808261
Si 74.91069737 1.59980456 13.52402406
Si 74.83313250 36.70643093 16.21443472
Si 74.81969513 1.52674329 18.77440851
Si 74.74838662 0.01077377 21.58564877
Si 74.75267461 1.74558923 24.25823818
Si 74.84765534 0.15229126 26.84607332
Si 74.77859482 1.55808309 29.49203060
Si 74.73387580 0.00217938 32.27373520
Si 74.76590742 1.64825040 34.91326393
Si 69.71474851 0.00797220 0.30134185
Si 69.86347602 1.55117941 2.98801242
Si 69.77083563 0.04084579 5.58483525
Si 69.67072665 1.56699334 8.22376551
Si 69.60792728 0.05068033 10.93430537
Si 69.61436899 1.65452621 13.58900777
Si 69.77766429 0.13289773 16.18846492
Si 69.77868727 1.54028061 18.81235675
Si 69.67667167 36.87545969 21.58598956
Si 69.73919437 1.81563877 24.03276043
Si 69.71123217 0.06181039 26.75405318
Si 69.82713956 1.63318914 29.46380560
Si 69.77724472 0.09941094 32.17569201
Si 69.68522299 1.63042046 34.87786342
Si 72.24494709 1.67489191 1.10831533
Si 72.38879324 3.11048905 3.90959436
Si 72.15753861 1.63802650 6.59366535
Si 72.12298009 3.12303626 9.27452830
Si 72.27613919 1.55749419 12.09862604