24192
Time=700001.00000886 pbc="T T T" Lattice="206.76147193 0.00000000 0.00000000 0.00000000 36.90832980 0.00000000 0.00000000 0.00000000 34.66131275" energy=-165678.96507645 virial="3907.49287849 10.15472293 373.98182736 10.15472293 1551.89030984 5815.60333898 373.98182736 5815.60333898 5449.00104046" stress="0.01853826 0.00001281 0.00135800 0.00001281 0.00971415 0.02199667 0.00135800 0.02199667 0.02442737" Properties=species:S:1:pos:R:3
Ga 195.84775909 36.90832980 30.27745790
Ga 195.84775910 0.00000000 1.39303073
Ga 195.84775909 36.90832980 7.16991631
Ga 195.84775902 36.90832980 12.94680153
Ga 195.84775903 36.90832980 18.72368710
Ga 195.84775908 0.00000000 24.50057268
Ga 193.67302668 1.53784707 31.88901155
Ga 193.67302662 1.53784706 3.00458437
Ga 193.67302648 1.53784706 8.78147004
Ga 193.67302629 1.53784701 14.55835519
Ga 193.67302642 1.53784705 20.33524072
Ga 193.67302660 1.53784709 26.11212632
Ga 196.66321722 1.53784707 33.24904328
Ga 196.66321722 1.53784707 4.36461610
Ga 196.66321722 1.53784707 10.14150133
Ga 196.66321720 1.53784707 15.91838690
Ga 196.66321721 1.53784707 21.69527248
Ga 196.66321722 1.53784707 27.47215770
Ga 192.85758449 36.90832974 28.91742270
Ga 192.85758460 0.00000005 0.03299517
Ga 192.85758453 0.00000001 5.80988083
Ga 192.85758406 36.90832979 11.58676646
Ga 192.85758377 36.90832973 17.36365145
Ga 192.85758435 36.90832979 23.14053709
Ga 201.81165140 1.53784707 31.72821799
Ga 201.81165140 1.53784707 2.84379083
Ga 201.81165140 1.53784707 8.62067605
Ga 201.81165140 1.53784707 14.39756163
Ga 201.81165140 1.53784707 20.17444720
Ga 201.81165140 1.53784707 25.95133243
Ga 199.63692589 0.00000000 33.33975456
Ga 199.63692589 36.90832980 4.45532738
Ga 199.63692589 0.00000000 10.23221261
Ga 199.63692589 0.00000000 16.00909819
Ga 199.63692589 0.00000000 21.78598376
Ga 199.63692589 0.00000000 27.56286899
Ga 202.62720541 0.00000000 0.03849431
Ga 202.62720541 0.00000000 5.81537989
Ga 202.62720541 0.00000000 11.59226546
Ga 202.62720541 0.00000000 17.36915069
Ga 202.62720541 0.00000000 23.14603626
Ga 202.62720541 0.00000000 28.92292184
Ga 198.82148851 1.53784707 30.36820143
Ga 198.82148851 1.53784707 1.48377426
Ga 198.82148851 1.53784707 7.26065983
Ga 198.82148851 1.53784707 13.03754506
Ga 198.82148851 1.53784707 18.81443063
Ga 198.82148851 1.53784707 24.59131621
Ga 183.91998226 36.90830308 27.37594030
Ga 183.91993587 0.00000009 33.15281366
Ga 183.91991471 0.00001644 4.26836375
Ga 183.91997490 0.00000030 10.04529038
Ga 183.91992823 36.90830817 15.82217777
Ga 183.91993693 36.90831700 21.59903360
Ga 181.82109736 1.42626522 29.15582321
Ga 181.71479502 1.42071134 0.11820804
Ga 181.77166385 1.68151490 5.83570601
Ga 181.68470627 1.62603087 11.77034423
Ga 181.67149410 1.63512474 17.53125943
Ga 181.80269259 1.57944541 23.34463489
Ga 184.73542695 1.53784217 30.34752069
Ga 184.73538335 1.53785241 1.46308855
Ga 184.73540035 1.53785261 7.23998827
Ga 184.73539605 1.53784112 13.01686849
Ga 184.73539315 1.53783544 18.79372995
Ga 184.73542259 1.53785140 24.57063754
Ga 180.95065861 0.06543513 26.19752259
Ga 180.79727449 0.08509370 31.83067397
Ga 180.72242656 0.03464655 2.91987104
Ga 180.88576446 0.04202480 8.68865523
Ga 180.86664439 0.02698623 14.53491825
Ga 180.84133933 36.87405694 20.35760665
Ga 189.88385716 1.53784709 28.82669391
Ga 189.88385770 1.53784696 34.60357952
Ga 189.88385671 1.53784711 5.71915266
Ga 189.88385499 1.53784686 11.49603850
Ga 189.88385459 1.53784595 17.27292299
Ga 189.88385572 1.53784748 23.04980848
Ga 187.70912583 36.90832922 30.43824697
Ga 187.70912501 0.00000013 1.55381976
Ga 187.70912551 0.00000020 7.33070690
Ga 187.70911770 36.90832896 13.10759147
Ga 187.70911892 36.90832874 18.88447316
Ga 187.70912445 0.00000059 24.66135956
Ga 190.69930038 36.90832968 31.79828162
Ga 190.69929976 36.90832979 2.91385456
Ga 190.69929973 0.00000013 8.69074055
Ga 190.69929849 36.90832970 14.46762496
Ga 190.69929907 0.00000009 20.24451044
Ga 190.69930021 0.00000015 26.02139604
Ga 186.89368326 1.53784782 27.46665885
Ga 186.89368087 1.53784723 33.24354728
Ga 186.89368190 1.53784690 4.35911793
Ga 186.89367480 1.53784737 10.13600623
Ga 186.89367454 1.53784004 15.91288962
Ga 186.89367900 1.53784777 21.68977457
Ga 171.86915198 36.89041856 24.53254364
Ga 171.99066786 0.04494051 30.37039067
Ga 171.96914141 36.85460313 1.53637987
Ga 171.96111471 36.81148185 7.26140840
Ga 172.06293559 0.06683878 13.14468788
Ga 172.02802149 36.90324942 18.83999112
Ga 169.71839043 1.68942512 26.22770109
Ga 169.87372712 1.52166374 32.03863675
Ga 169.83995901 1.58242270 3.25467057
Ga 169.77328240 1.46791256 8.89599848
Ga 169.87701753 1.67131046 14.82725107
Ga 169.82252692 1.53170552 20.40299573
Ga 172.63458151 1.49667872 27.45011575
Ga 172.71616361 1.47972833 33.38690912
Ga 172.66564176 1.32661981 4.48985379
Ga 172.59623156 1.51382881 10.29463810
Ga 172.84009543 1.59396691 15.96670777
Ga 172.85888399 1.52316243 21.83886442
Ga 168.94888312 0.04787726 23.41676126
Ga 169.11551998 36.88152511 29.02785162
Ga 168.92805152 0.10223394 0.10703185
Ga 168.94546575 36.85545733 5.89070590
Ga 168.96061260 0.02259182 11.74730836
Ga 168.82766126 0.18986374 17.46081354
Ga 177.89715767 1.61953561 26.06357827
Ga 177.90312529 1.50465372 31.86462326
Ga 177.99849578 1.43933507 3.03750644
Ga 177.82628942 1.58187479 8.77461187
Ga 177.85587494 1.60595974 14.50568444
Ga 178.04785506 1.56526632 20.27843765
Ga 175.81756459 36.81557824 27.67197222
Ga 175.77784282 0.08080568 33.51683376
Ga 175.71616195 0.00430521 4.58505305
Ga 175.74319181 36.89597407 10.38009943
Ga 175.85817590 36.89660651 16.09801781
Ga 175.87939249 36.89733833 21.88905211
Ga 178.89721901 0.16824182 28.96499562
Ga 178.77813030 36.90382392 0.16728945
Ga 178.72769247 36.78944719 6.08697021
Ga 178.74265299 0.18387493 11.65002688
Ga 178.67527698 36.76715035 17.41083975
Ga 178.71410419 0.01604155 23.14605217
Ga 174.92683871 1.51951713 24.76183956
Ga 174.98771509 1.61662538 30.41775535
Ga 174.87750099 1.56225651 1.69247276
Ga 174.69838110 1.41105950 7.38979182
Ga 174.95889194 1.57345691 13.13249302
Ga 174.94340949 1.42224987 19.01020709
Ga 159.93269910 36.86278573 21.88725650
Ga 159.96491834 36.79615114 27.64623335
Ga 159.93740067 36.88764544 33.41463055
Ga 159.96198210 36.82534326 4.57365027
Ga 160.11224542 0.01277031 10.24390457
Ga 159.94423250 0.11704922 16.07578893
Ga 157.69341982 1.46038118 23.39015142
Ga 157.78008538 1.53688346 29.27613177
Ga 157.76714954 1.53685641 0.33772897
Ga 157.84414768 1.51594819 6.22980924
Ga 157.89890763 1.56537422 12.00359870
Ga 157.75851256 1.60641742 17.55756963
Ga 160.77965067 1.42213615 24.72667842
Ga 160.79449495 1.38303523 30.56743132
Ga 160.71525110 1.44739067 1.76209417
Ga 160.89098426 1.49121773 7.50148668
Ga 161.02356074 1.34374659 13.26433437
Ga 160.96449315 1.60011717 19.02336098
Ga 156.92606244 0.03345294 20.58548756
Ga 156.88564581 0.07981709 26.24364645
Ga 156.94591364 36.83562340 32.17225048
Ga 156.97802991 36.86172182 3.18621627
Ga 156.97274933 0.08319336 8.94843670
Ga 156.96045364 0.11534820 14.71063570
Ga 165.90417040 1.54443617 23.25491265
Ga 166.03680967 1.50023714 28.98222075
Ga 166.01121215 1.43520948 0.03448268
Ga 165.89165469 1.65308562 5.83852885
Ga 166.08919688 1.43260469 11.65314087
Ga 165.92894120 1.53311186 17.56794897
Ga 163.70265103 36.86706899 24.90276076
Ga 163.85376658 36.82593094 30.62702029
Ga 163.85538198 36.86933255 1.56457802
Ga 163.87938500 0.03292691 7.51789806
Ga 163.92894440 36.80710855 13.38232847
Ga 163.73710950 36.87866305 19.26903345
Ga 166.82187285 36.83755546 26.02241908
Ga 166.94759325 36.85138694 31.91425632
Ga 166.84139998 0.18325167 3.00025989
Ga 166.87078929 36.88424295 8.89021059
Ga 166.80925365 36.90330996 14.62867503
Ga 166.77974046 0.15249834 20.44837130
Ga 162.90988963 1.62967992 21.93974279
Ga 163.05568786 1.49037504 27.76961684
Ga 162.80573716 1.52277087 33.42919642
Ga 162.94549038 1.49982866 4.56197972
Ga 163.07802732 1.50296877 10.49721253
Ga 163.09899114 1.48264832 16.19916716
Ga 148.05322347 36.78514490 18.97902315
Ga 148.00324584 0.16331538 24.79499227
Ga 147.98039864 0.08348212 30.48699180
Ga 147.94912187 0.17129550 1.61342513
Ga 148.10196557 0.01388084 7.46335288
Ga 148.07074280 36.75857878 13.24519215
Ga 145.73929597 1.63444458 20.61421989
Ga 145.78613596 1.55808958 26.44138219
Ga 145.93473346 1.66810671 32.32047487
Ga 145.61669552 1.72411068 3.53991012
Ga 145.91058690 1.53167511 9.06518453
Ga 145.76337097 1.55493418 14.97455089
Ga 148.82445504 1.62050165 21.92512231
Ga 148.93654113 1.61660327 27.72763947
Ga 149.03640310 1.70807300 33.31904591
Ga 148.85112407 1.53405078 4.63617849
Ga 148.99686630 1.53833199 10.45712654
Ga 148.73625108 1.47359199 16.26531460
Ga 144.87219370 0.19687519 17.71982039
Ga 144.87786825 36.87324970 23.38620463
Ga 145.06717511 36.88585886 29.28742316
Ga 144.94517866 0.01960267 0.19825892
Ga 144.92308764 0.01391806 6.17956109
Ga 145.04687185 0.15011551 11.96270699
Ga 153.97843107 1.66212208 20.46383912
Ga 153.93567888 1.59079736 26.24780798
Ga 154.00397028 1.73269934 32.08541541
Ga 154.05107755 1.40058458 3.04565645
Ga 153.99300364 1.70563169 8.76225218
Ga 153.94909412 1.61839655 14.51946180
Ga 151.88597644 0.09911412 22.04840694
Ga 151.88647325 36.89100674 27.82203859
Ga 151.79200519 36.89116156 33.63263250
Ga 151.73275954 36.82168191 4.70152613
Ga 151.91146292 36.80208848 10.55996297
Ga 151.93557618 0.02591209 16.39548701
Ga 154.69868396 0.10370562 23.51178388
Ga 154.79858392 0.07596246 29.22972076
Ga 154.84268497 0.08332748 0.27803677
Ga 154.97055477 0.09520693 6.08018019
Ga 154.87887218 36.90633233 11.85260787
Ga 154.91747492 0.07918676 17.60948654
Ga 150.95919862 1.57708902 19.08376658
Ga 150.98866186 1.70138965 24.84501806
Ga 151.09781157 1.56061776 30.71935099
Ga 150.99984410 1.57446479 1.82902450
Ga 151.01170750 1.46193992 7.46362925
Ga 150.92208450 1.60780350 13.26993818
Ga 136.01271698 0.04742552 16.06308566
Ga 135.96055982 0.02713701 21.77465993
Ga 135.95743857 0.08152770 27.78681730
Ga 136.01082749 0.07144005 33.68522579
Ga 135.83429395 0.11440552 4.50330328
Ga 135.95611643 0.04664717 10.30777117
Ga 133.91250460 1.56470567 17.89672369
Ga 133.78699545 1.57258594 23.69298289
Ga 133.73492172 1.50781377 29.35466056
Ga 133.75675594 1.68389000 0.58791956
Ga 133.85490887 1.56666482 6.39191141
Ga 133.79692984 1.56419574 11.99551582
Ga 136.86030660 1.73232604 19.05613266
Ga 136.95502183 1.48490176 24.95727096
Ga 136.72853783 1.66909689 30.76648808
Ga 136.73307300 1.64180011 2.01178306
Ga 136.85798127 1.62890599 7.54785540
Ga 136.87287812 1.56165807 13.34297814
Ga 133.06181361 0.04383598 14.94089788
Ga 132.85902534 36.90225018 20.56667630
Ga 132.96340372 0.05554047 26.28005411
Ga 133.05689411 36.84498538 32.17151138
Ga 132.89336253 0.24438088 3.31002304
Ga 132.90315985 36.89581532 9.12687032
Ga 141.82758013 1.57271002 17.54604053
Ga 141.99033608 1.49983184 23.44708756
Ga 141.94774830 1.55852506 29.13468669
Ga 141.97621352 1.61030804 0.33902633
Ga 142.11712110 1.47387113 6.16596099
Ga 142.08136836 1.68779314 11.85086568
Ga 139.87095556 0.01841476 19.30555678
Ga 139.84668079 0.02113581 24.96801751
Ga 139.74840853 0.01511556 30.79366229
Ga 139.72083193 0.09907695 1.83985441
Ga 139.73294366 0.11722963 7.87972037
Ga 139.97366390 0.05443838 13.49266138
Ga 142.80184387 0.04150983 20.50794747
Ga 142.76337357 36.89644048 26.37263761
Ga 142.73591551 0.01880116 32.14667108
Ga 142.91647211 0.05974470 3.23501840
Ga 142.83430175 0.03598750 9.07219587
Ga 142.98297031 36.89062561 14.89191157
Ga 138.97772499 1.76852377 16.30536433
Ga 138.93566513 1.50539883 22.10599312
Ga 138.88165267 1.56475055 27.84886281
Ga 139.07327202 1.46513458 33.70250774
Ga 139.06700916 1.50821311 4.69367420
Ga 139.04601607 1.56930977 10.52289032
Ga 123.85656979 0.14138501 13.37168956
Ga 124.02459258 0.02461732 19.00324080
Ga 123.87192058 0.12539298 24.99074157
Ga 123.99061359 0.03714650 30.75564221
Ga 123.91421226 36.89850592 1.82429779
Ga 124.13311535 0.06849376 7.64734698
Ga 121.68780655 1.71790710 14.87950192
Ga 121.93391023 1.78795500 20.61162943
Ga 121.72638350 1.58882141 26.52467897
Ga 121.87475401 1.58700661 32.31621194
Ga 121.74493613 1.60838999 3.37640521
Ga 121.92674613 1.60727000 9.27785531
Ga 124.68874136 1.61415901 16.20220743
Ga 124.77412845 1.49287158 22.12774143
Ga 124.79922942 1.84706723 27.92868387
Ga 124.81754029 1.63310616 33.66356402
Ga 124.73587681 1.45722981 4.84374537
Ga 124.80319061 1.81733006 10.67333792
Ga 120.93048265 0.09877986 12.01024910
Ga 120.92163782 0.15014534 17.66785930
Ga 120.99021686 0.02838049 23.50133291
Ga 121.10799745 36.84620081 29.38975525
Ga 120.87477383 36.85038595 0.33586375
Ga 120.90078355 0.05838937 6.29643103
Ga 129.98135210 1.61415733 14.81225443
Ga 129.84901304 1.51145777 20.42683869
Ga 129.99338983 1.59652182 26.48659856
Ga 129.95809794 1.68297792 32.09474586
Ga 129.88736154 1.71027057 3.07763977
Ga 129.90123030 1.65453857 9.08423059
Ga 127.65997369 0.04053857 16.48798017
Ga 127.88644784 0.35842300 22.43585353
Ga 127.80937098 0.01006581 27.97112355
Ga 127.84906188 0.08043808 33.64509567
Ga 127.77588342 0.02401613 4.72357884
Ga 127.83912506 0.12046455 10.76733284
Ga 130.66244402 0.09181960 17.67872027
Ga 130.71413439 0.15793432 23.55147176
Ga 130.85094300 0.06858361 29.45668312
Ga 130.71463746 0.06136056 0.54182933
Ga 130.91691708 0.05498118 6.11250660
Ga 130.82946179 0.04280016 11.93126263
Ga 126.93020739 1.75096354 13.48720137
Ga 126.89868357 1.54383502 19.32900480
Ga 126.86237666 1.61715491 24.96593878
Ga 127.03302727 1.71673328 30.67615441
Ga 127.06474415 1.60114090 1.86497806
Ga 126.91463755 1.58842926 7.71190704
Ga 111.84866877 0.13924865 10.53024291
Ga 111.82184582 0.17786761 16.25869331
Ga 111.88501646 0.21095078 21.86289019
Ga 112.02798693 0.16617206 27.87181506
Ga 112.04314528 0.18230282 33.74442508
Ga 112.06725174 0.07486461 5.02271410
Ga 109.61513116 1.74149213 12.37611111
Ga 109.71913797 1.63765551 17.99248639
Ga 109.93816826 1.76502033 23.39384511
Ga 109.77843270 1.77281523 29.49569342
Ga 109.86789674 1.52573048 0.59186695
Ga 109.76603413 1.61875519 6.31474241
Ga 112.80660555 1.83830328 13.54866324
Ga 112.91944141 1.77281363 19.10180125
Ga 112.69582086 1.80180424 25.01045757
Ga 112.92624694 1.67740665 30.87939393
Ga 112.77147854 1.64437911 1.97027651
Ga 112.86515752 1.63152821 7.86469983
Ga 108.90635496 0.04708940 9.15188337
Ga 108.86155305 0.24495973 15.08650833
Ga 108.74057668 0.04511587 20.65887067
Ga 109.02915390 0.21639318 26.48891821
Ga 109.03585870 0.05928892 32.18002904
Ga 109.00537397 0.11512070 3.27242283
Ga 117.89979006 1.65022959 11.93160992
Ga 118.05976418 1.75833956 17.86050625
Ga 117.99950403 1.71206153 23.53971557
Ga 117.96535439 1.51060139 29.25483295
Ga 118.10047427 1.58974831 0.39362541
Ga 118.10458617 1.50508285 6.20666853
Ga 115.78302419 0.10667096 13.65403009
Ga 115.88274991 0.07015398 19.30336745
Ga 115.87478223 0.19770060 25.25475734
Ga 115.93378078 0.16909107 30.94778609
Ga 115.92307280 0.14163985 2.03350079
Ga 115.96271585 0.09576874 7.90799146
Ga 118.76984478 0.20313004 14.84276606
Ga 118.87959018 0.10543602 20.77096505
Ga 118.94498862 0.15047333 26.33168468
Ga 118.96185787 0.07293925 32.25184176
Ga 118.77603760 0.09803085 3.42649620
Ga 118.85803722 0.01304005 9.30048708
Ga 114.84527078 1.69081540 10.70996137
Ga 114.89609864 1.66228137 16.52149709
Ga 114.88880117 1.70445528 22.16456010
Ga 114.95782816 1.73229959 27.88840338
Ga 115.22989831 1.68694745 33.78982073
Ga 115.06631630 1.60752192 4.95189566
Ga 100.25282444 0.00316693 7.45969294
Ga 99.60802296 0.07718948 13.40976921
Ga 99.66572588 0.34954274 19.59981516
Ga 100.01846179 0.20767310 25.25783622
Ga 100.07576069 0.18537096 30.92712898
Ga 100.08249935 0.21085630 1.92026778
Ga 96.81362373 2.97881203 9.19470234
Ga 96.96124156 0.73429439 14.57421445
Ga 97.08754107 0.61860807 21.69156475
Ga 97.65564897 36.89431574 27.23939623
Ga 97.61004035 36.89065989 32.74943258
Ga 97.26839013 2.99845037 3.67461208
Ga 100.66954740 1.74977904 10.45094739
Ga 100.08171145 1.66559535 16.47813547
Ga 100.73689406 1.67067907 22.33517570
Ga 101.00689778 1.76395345 28.15323666
Ga 100.99473678 1.62720928 33.77162868
Ga 101.19145490 1.47654248 4.69712166
Ga 97.49708047 1.49337486 6.29199585
Ga 97.24985366 1.75214666 11.78265453
Ga 97.24975512 36.00295538 18.70394558
Ga 97.41007796 35.73921842 24.29798593
Ga 97.02148776 35.64576007 30.11067624
Ga 97.40020813 35.41359799 0.91706617
Ga 105.96643537 1.68720014 9.09694935
Ga 105.60520571 1.72603847 15.03661684
Ga 105.80478921 1.66651695 20.53893749
Ga 106.19988691 1.54842551 26.50128020
Ga 106.20686167 1.76257786 32.17584091
Ga 106.17002408 1.60767249 3.23392033
Ga 103.66331911 0.17077075 10.74977589
Ga 103.39085571 0.16012074 16.43852072
Ga 103.67303991 0.15992700 22.25996897
Ga 103.84554453 0.03159397 27.94157735
Ga 104.13332869 0.18239587 33.79924343
Ga 104.03131852 0.12693812 4.91989745
Ga 106.77006364 0.18933173 12.22376297
Ga 106.82970611 0.15560270 17.77066109
Ga 106.82829791 0.33352921 23.50996456
Ga 106.68399597 0.12095626 29.33976912
Ga 106.99707040 0.24834067 0.34489261
Ga 106.89605468 36.84314351 6.43209933
Ga 103.20643354 1.63739700 7.76672521
Ga 102.64403451 1.61432685 13.55508921
Ga 102.72768113 1.67581968 19.36826706
Ga 103.07345041 1.71477413 25.07162961
Ga 102.92887596 1.62052657 30.97531527
Ga 103.29825715 1.64027601 1.86318808
Si 11.53154786 0.15766453 31.10629589
Si 11.53154787 1.81380755 28.44004097
Si 11.53154791 0.39425642 25.77378608
Si 11.53154786 2.05039940 23.10753146
Si 11.53154780 0.63084821 20.44127654
Si 11.53154777 2.28699121 17.77502160
Si 11.53154771 0.86744007 15.10876703
Si 11.53154769 2.52358312 12.44251206
Si 11.53154773 1.10403201 9.77625716
Si 11.53154779 2.76017503 7.11000254
Si 11.53154776 1.34062387 4.44374763
Si 11.53154782 2.99676683 1.77749270
Si 11.53154782 1.57721566 33.77255048
Si 6.49585833 1.73507640 30.21756395
Si 6.49585833 0.31552526 27.55130903
Si 6.49585833 1.97166827 24.88505443
Si 6.49585833 0.55211713 22.21879951
Si 6.49585833 2.20826014 19.55254458
Si 6.49585833 0.78870900 16.88628998
Si 6.49585833 2.44485197 14.22003504
Si 6.49585833 1.02530083 11.55378012
Si 6.49585833 2.68144384 8.88752552
Si 6.49585833 1.26189270 6.22127059
Si 6.49585833 2.91803571 3.55501567
Si 6.49585833 1.49848457 0.88876107
Si 6.49585833 0.07893343 32.88381889
Si 14.04867841 1.65620752 31.99506719
Si 14.04867896 0.23665634 29.32881276
Si 14.04867861 1.89279946 26.66255786
Si 14.04867886 0.47324841 23.99630291
Si 14.04867828 2.12939134 21.33004844
Si 14.04867861 0.70983988 18.66379362
Si 14.04867799 2.36598310 15.99753865
Si 14.04867830 0.94643189 13.33128359
Si 14.04867794 2.60257515 10.66502875
Si 14.04867820 1.18302416 7.99877397
Si 14.04867852 2.83916725 5.33251920
Si 14.04867829 1.41961601 2.66626458
Si 14.04867824 0.00006476 0.00000916
Si 9.01333817 1.65607304 31.99504771
Si 9.01333817 0.23652190 29.32879312
Si 9.01333818 1.89266491 26.66253820
Si 9.01333817 0.47311373 23.99628326
Si 9.01333817 2.12925674 21.33002868
Si 9.01333816 0.70970560 18.66377374
Si 9.01333817 2.36584861 15.99751880
Si 9.01333817 0.94629747 13.33126387
Si 9.01333817 2.60244048 10.66500929
Si 9.01333817 1.18288930 7.99875434
Si 9.01333817 2.83903231 5.33249942
Si 9.01333818 1.41948117 2.66624483
Si 9.01333818 36.90825983 34.66130265
Si 21.60198726 0.15760066 31.10629162
Si 21.60222110 1.81379747 28.44008741
Si 21.60219057 0.39425237 25.77381821
Si 21.60214061 2.05034820 23.10754596
Si 21.60224149 0.63081605 20.44137590
Si 21.60211738 2.28696518 17.77499727
Si 21.60216368 0.86747754 15.10870937
Si 21.60229929 2.52361072 12.44254394
Si 21.60215564 1.10406296 9.77624696
Si 21.60205259 2.76018606 7.10996271
Si 21.60217996 1.34062406 4.44373763
Si 21.60222178 2.99676104 1.77752466
Si 21.60225733 1.57718226 33.77261536
Si 16.56686949 1.73506903 30.21756529
Si 16.56687160 0.31551757 27.55131107
Si 16.56686737 1.97166012 24.88505654
Si 16.56687093 0.55210939 22.21880136
Si 16.56686470 2.20825273 19.55254734
Si 16.56686507 0.78870122 16.88629296
Si 16.56686593 2.44484517 14.22003584
Si 16.56686558 1.02529452 11.55378123
Si 16.56686469 2.68143875 8.88752654
Si 16.56686773 1.26188805 6.22127121
Si 16.56686852 2.91802979 3.55501728
Si 16.56686804 1.49847793 0.88876213
Si 16.56686739 0.07892608 32.88381829
Si 24.00990197 1.66014765 32.06920642
Si 24.11888254 0.32740356 29.46830982
Si 24.11782532 1.89947310 26.71273929
Si 24.12816270 0.40245474 24.04856914
Si 24.07266036 2.21643145 21.39731244
Si 24.04082838 0.85627835 18.70302837
Si 24.10610672 2.33665755 15.98403086
Si 24.15424043 0.94444938 13.35804360
Si 24.07933177 2.64464425 10.70536994
Si 24.12724133 1.35617112 7.97894646
Si 24.09078210 2.88258903 5.27671658
Si 24.12989799 1.51548019 2.68196369
Si 24.14129067 36.85940163 0.05129802
Si 19.08399515 1.65607540 31.99504603
Si 19.08401890 0.23652872 29.32879624
Si 19.08400061 1.89266780 26.66254402
Si 19.08400759 0.47311174 23.99628321
Si 19.08400951 2.12926018 21.33003647
Si 19.08400181 0.70970921 18.66378403
Si 19.08399509 2.36585232 15.99751643
Si 19.08400488 0.94630568 13.33126497
Si 19.08400303 2.60245053 10.66501197
Si 19.08400141 1.18290011 7.99875360
Si 19.08400854 2.83903882 5.33249594
Si 19.08400396 1.41949210 2.66624020
Si 19.08400627 36.90826958 34.66130465
Si 31.61258300 0.26445856 31.16644319
Si 31.63109596 1.84853552 28.50832500
Si 31.61415498 0.52534652 25.88220464
Si 31.70408446 2.16921373 23.20951723
Si 31.56290837 0.66679880 20.44185685
Si 31.56550735 2.38029475 17.83157257
Si 31.66310461 0.91362230 15.09834537
Si 31.62439735 2.52996827 12.55425437
Si 31.66300614 1.15674537 9.79544544
Si 31.66172913 2.77279938 7.10689639
Si 31.61240691 1.33529143 4.39870541
Si 31.59080576 3.06973968 1.74679672
Si 31.63855214 1.67264127 33.89010501
Si 26.60619670 1.80655541 30.20509499
Si 26.62160845 0.39457210 27.55966567
Si 26.62027083 2.15421819 24.93040881
Si 26.53419747 0.73505097 22.30322852
Si 26.66850164 2.35327653 19.60563774
Si 26.57790916 0.80157608 16.85500064
Si 26.50387732 2.48330874 14.23024539
Si 26.58292966 1.19727753 11.53661605
Si 26.54277165 2.74964379 8.82378739
Si 26.65245976 1.34951861 6.22928362
Si 26.65501145 3.00376751 3.53712811
Si 26.59077599 1.45920945 1.03738399
Si 26.59331623 0.18988160 33.03422980
Si 34.17156781 1.77131955 31.99909574
Si 34.13008477 0.26378260 29.41922061
Si 34.19060338 1.93881693 26.69724461
Si 34.21396854 0.51877211 23.97475162
Si 34.12118881 2.17030764 21.38550131
Si 34.11044650 0.70938845 18.72323672
Si 34.17644933 2.30273840 15.98911071
Si 34.12938615 0.92824335 13.36376444
Si 34.20672591 2.67804853 10.70626867
Si 34.20241650 1.27626258 8.07627457
Si 34.23163980 2.98355030 5.43536918
Si 34.16078740 1.50370247 2.82067594
Si 34.13482920 0.04547490 34.65601475
Si 29.10958156 1.68604344 32.01803579
Si 29.08551460 0.29764901 29.36398346
Si 29.04738163 1.99440559 26.69982274
Si 29.11043604 0.50688417 24.00183179
Si 29.09261515 2.19546918 21.26915132
Si 29.01770319 0.78218452 18.68627014
Si 29.09646328 2.45062743 16.01374098
Si 29.15737660 0.97242599 13.40621152
Si 29.19377370 2.52381151 10.67164616
Si 29.09267386 1.27928642 8.12250215
Si 29.15933868 2.97262484 5.34326188
Si 29.17880493 1.49824282 2.72071821
Si 29.15810656 0.07123996 0.06827177
Si 41.74412484 0.19005963 31.19166975
Si 41.65887492 1.79658946 28.53840547
Si 41.71335580 0.42348264 25.70073772
Si 41.72253245 2.10955813 23.00597474
Si 41.74514035 0.67907760 20.48910711
Si 41.63745156 2.37232391 17.80461618
Si 41.61418102 0.82291232 15.15201859
Si 41.69250360 2.53440160 12.47182016
Si 41.72934522 1.07332558 9.87681722
Si 41.81504235 2.76469355 7.17474981
Si 41.74857200 1.28433518 4.47043633
Si 41.67568172 3.01505718 1.80287728
Si 41.73442213 1.53767187 33.93994511
Si 36.68083230 1.88189481 30.34272208
Si 36.67419212 0.33908179 27.73518643
Si 36.63836891 2.02620316 24.94487393
Si 36.57445403 0.53310472 22.22400760
Si 36.63958867 2.23970287 19.62112144
Si 36.69424021 0.82308081 16.85692015
Si 36.71036735 2.53894886 14.20310111
Si 36.62701160 1.07354371 11.55331329
Si 36.62487288 2.74950644 8.94491420
Si 36.75753772 1.36289538 6.32126934
Si 36.81440298 2.96430804 3.65696366
Si 36.78635700 1.52401000 0.93854703
Si 36.73242919 0.15141732 32.93601428
Si 44.07840483 1.64267457 32.13582083
Si 44.25745661 0.27121387 29.37405023
Si 44.23844689 1.77513265 26.75351546
Si 44.26067241 0.37376042 24.02719315
Si 44.19459797 2.21538189 21.27268217
Si 44.21256075 0.84621337 18.63721227
Si 44.21249820 2.44868535 16.02841573
Si 44.12201675 1.00128850 13.34206550
Si 44.26421310 2.65701612 10.79616269
Si 44.30465236 1.22481367 8.05207980
Si 44.29408655 2.85047624 5.24092537
Si 44.10406145 1.39910077 2.72192010
Si 44.17294524 0.03024652 0.00552503
Si 39.23537071 1.71543777 32.13834803
Si 39.19779558 0.30168814 29.44105856
Si 39.24175596 1.98616493 26.70223331
Si 39.11012462 0.48491763 24.01993445
Si 39.14848604 2.24163137 21.29498170
Si 39.23584964 0.66672808 18.71930894
Si 39.19045862 2.40196398 15.95275396
Si 39.13087641 1.01762533 13.37914334
Si 39.25867770 2.56346954 10.67025511
Si 39.27193509 1.06935508 7.96150336
Si 39.23830603 2.78938887 5.35795979
Si 39.20569336 1.28887947 2.75127353
Si 39.14519100 0.04228372 0.14307163
Si 51.84907183 0.11790450 31.26118236
Si 51.76877486 1.80520052 28.46483505
Si 51.71740947 0.38090803 25.86516177
Si 51.66355276 1.97435236 23.23293830
Si 51.74919214 0.50416782 20.57240917
Si 51.83839380 2.21719068 17.87123046
Si 51.78625209 0.88903974 15.17520219
Si 51.75904128 2.53431143 12.50879274
Si 51.91242595 1.13287056 9.85311271
Si 51.71908738 2.65373766 7.17323626
Si 51.74352266 1.31934619 4.38261746
Si 51.71318497 2.98664250 1.78662099
Si 51.71428139 1.60639478 33.79951504
Si 46.67742637 1.83242694 30.31723253
Si 46.66119554 0.38650804 27.59082743
Si 46.73450543 1.95128500 24.93771421
Si 46.66917758 0.69278296 22.23102999
Si 46.75213723 2.41338832 19.56614230
Si 46.56086348 0.78153178 16.85580910
Si 46.67397577 2.45888122 14.16234936
Si 46.74278991 0.99960517 11.63338392
Si 46.75979725 2.72498603 8.97103113
Si 46.82225470 1.37473537 6.33089091
Si 46.81072189 3.07500399 3.65686834
Si 46.66656631 1.57795204 0.99020587
Si 46.68703603 0.34135289 32.95492044
Si 54.30560336 1.68055175 31.93183571
Si 54.28884573 0.11473254 29.51247858
Si 54.10857533 1.99844944 26.80959454
Si 54.00995790 0.60623271 24.17992134
Si 54.24683007 2.16330233 21.36063832
Si 54.27080423 0.71926085 18.70779329
Si 54.29710156 2.47369508 16.08229799
Si 54.26653993 1.00540765 13.40946645
Si 54.26604382 2.60959990 10.62008126
Si 54.27986481 1.20891507 8.04334768
Si 54.24638314 2.85368780 5.35728929
Si 54.26686653 1.47957293 2.71363517
Si 54.30827348 0.09270757 0.04822774
Si 49.24707456 1.69133294 32.01107531
Si 49.30405477 0.35288467 29.42902832
Si 49.24570632 1.82389896 26.65420386
Si 49.15511715 0.39605851 24.10211256
Si 49.19154579 2.20588689 21.44322919
Si 49.22292720 0.68857598 18.73725082
Si 49.26457086 2.26915620 16.03130530
Si 49.16765559 0.94617745 13.43275227
Si 49.25441211 2.62710870 10.65081070
Si 49.28382222 1.28652995 8.03248555
Si 49.12241157 2.92087664 5.39819197
Si 49.19342311 1.51854269 2.66741717
Si 49.24331027 36.87363891 0.00151923
Si 61.78614046 0.30359914 31.14826971
Si 61.70151525 1.92426463 28.43353250
Si 61.81757749 0.53981320 25.81294263
Si 61.92773631 2.10416816 23.10799433
Si 61.82622687 0.83376175 20.40570512
Si 61.81429508 2.31809825 17.84151618
Si 61.73694235 0.89585506 15.09227026
Si 61.86809590 2.62339496 12.52157290
Si 61.80307172 1.14469835 9.81057675
Si 61.80695494 2.84186361 7.15828712
Si 61.96834796 1.53578293 4.45850782
Si 61.79899050 3.05936589 1.88096011
Si 61.79563906 1.71483158 33.80570844
Si 56.73091552 1.72164375 30.31699221
Si 56.75561909 0.37983587 27.63893973
Si 56.76607087 1.98116568 25.00553184
Si 56.71439794 0.69289028 22.32268559
Si 56.77162248 2.27367586 19.69376534
Si 56.76943297 0.83814042 17.02388035
Si 56.87420486 2.59583215 14.34752709
Si 56.85379167 1.14956305 11.68472415
Si 56.89442706 2.77561909 8.98170612
Si 56.77237844 1.37383455 6.32804988
Si 56.70969441 2.94661474 3.55440684
Si 56.77707119 1.46798733 0.96390623
Si 56.71622395 0.04975726 32.95360623
Si 64.33641199 1.81195402 32.12009793
Si 64.27027040 0.40581666 29.38232875
Si 64.28414937 2.05114004 26.69470458
Si 64.31732131 0.52285094 24.02395827
Si 64.26193680 2.26017138 21.30545588
Si 64.28925855 0.77193352 18.70514329
Si 64.30791003 2.44873076 16.06107968
Si 64.30129352 0.96063342 13.39031306
Si 64.33654287 2.72118483 10.61758641
Si 64.30583344 1.23831050 8.14301739
Si 64.32458723 2.89229420 5.43549657
Si 64.41372021 1.45305455 2.61819488
Si 64.18910507 0.14694802 0.00773238
Si 59.18022629 1.71998681 31.97895431
Si 59.20623511 0.24655450 29.38338724
Si 59.24826566 1.95149498 26.78730666
Si 59.22320368 0.61071796 24.15318218
Si 59.29354724 2.31228803 21.41347750
Si 59.26012238 0.87970520 18.83551300
Si 59.31662877 2.38406717 16.11654576
Si 59.33125647 1.01042009 13.47128732
Si 59.38079133 2.70146969 10.75812849
Si 59.29893368 1.30250050 8.14145397
Si 59.24297089 2.85545587 5.42008989
Si 59.30053320 1.54150691 2.66403457
Si 59.30204619 0.15578147 34.60876725
Si 71.87041672 0.21471998 31.06460213
Si 71.83698199 1.82629809 28.35105177
Si 71.85502836 0.55175249 25.73174435
Si 71.78944713 2.20467881 23.06456098
Si 71.75423561 0.76319411 20.38241535
Si 72.01304908 2.33131468 17.72375463
Si 71.96065357 0.80036599 15.13232268
Si 71.83799995 2.48404295 12.35024345
Si 71.89763392 1.21824172 9.76930800
Si 71.88548690 2.75626169 7.21935823
Si 71.78272217 1.42002612 4.36562464
Si 71.78739866 3.01719313 1.74801306
Si 71.93800630 1.67968559 33.77146908
Si 66.88139220 1.86046679 30.17446253
Si 66.72790289 0.41831661 27.59398059
Si 66.75536655 2.05802580 25.00100982
Si 66.76496590 0.63930933 22.24720536
Si 66.83689827 2.26606517 19.57674603
Si 66.80313975 0.86615635 16.93133274
Si 66.81934096 2.53301970 14.22255277
Si 66.89458038 1.23185303 11.65487934
Si 66.93678437 2.81769865 8.85416332
Si 66.90005106 1.31383791 6.33809214
Si 66.82472893 2.96535128 3.59799058
Si 66.80003981 1.51208050 0.87570360
Si 66.81435081 0.24032467 32.84714431
Si 74.42160678 1.77038968 31.95357860