       N       E                     dE             d eps       ncg     rms          rms(c)
DAV:   1    -0.259035472478E+03   -0.25904E+03   -0.14267E+02  9152   0.507E+01    0.365E+01
DAV:   2    -0.368728453505E+03   -0.10969E+03   -0.16549E+02  8823   0.209E+02    0.726E+01
DAV:   3    -0.230273678775E+03    0.13845E+03   -0.13291E+02  9048   0.788E+01    0.190E+01
DAV:   4    -0.218368939637E+03    0.11905E+02   -0.30293E+01  6656   0.243E+01    0.133E+01
DAV:   5    -0.217087595205E+03    0.12813E+01   -0.79310E+00  6664   0.125E+01    0.111E+01
DAV:   6    -0.216563404296E+03    0.52419E+00   -0.42438E+00  6848   0.857E+00    0.145E+01
DAV:   7    -0.214611081278E+03    0.19523E+01   -0.35345E+00  8272   0.116E+01    0.973E+00
DAV:   8    -0.215024432621E+03   -0.41335E+00   -0.28704E+00  6520   0.432E+00    0.147E+01
DAV:   9    -0.214606300989E+03    0.41813E+00   -0.20294E+00  7000   0.359E+00    0.123E+01
DAV:  10    -0.214473257308E+03    0.13304E+00   -0.13483E+00  7560   0.314E+00    0.108E+01
DAV:  11    -0.215689893372E+03   -0.12166E+01   -0.51154E+00  7936   0.467E+00    0.176E+01
DAV:  12    -0.214453429436E+03    0.12365E+01   -0.23785E+00  7808   0.466E+00    0.112E+01
DAV:  13    -0.214030148319E+03    0.42328E+00   -0.15093E+00  7096   0.314E+00    0.614E+00
DAV:  14    -0.213949730325E+03    0.80418E-01   -0.17241E-01  6744   0.243E+00    0.449E+00
DAV:  15    -0.213927067569E+03    0.22663E-01   -0.19675E-01  6464   0.153E+00    0.398E+00
DAV:  16    -0.213904029288E+03    0.23038E-01   -0.76199E-02  7776   0.124E+00    0.330E+00
DAV:  17    -0.213861265923E+03    0.42763E-01   -0.41865E-02  6664   0.857E-01    0.105E+00
DAV:  18    -0.213857480519E+03    0.37854E-02   -0.14897E-02  6480   0.346E-01    0.500E-01
DAV:  19    -0.213858830439E+03   -0.13499E-02   -0.36052E-03  6696   0.294E-01    0.519E-01
DAV:  20    -0.213859623411E+03   -0.79297E-03   -0.27949E-03  7368   0.429E-01    0.521E-01
DAV:  21    -0.213859229250E+03    0.39416E-03   -0.18345E-03  7256   0.301E-01    0.464E-01
DAV:  22    -0.213859245280E+03   -0.16030E-04   -0.15049E-03  6272   0.169E-01    0.218E-01
DAV:  23    -0.213859469716E+03   -0.22444E-03   -0.58279E-04  6936   0.855E-02    0.150E-01
DAV:  24    -0.213860167139E+03   -0.69742E-03   -0.47951E-04  5864   0.776E-02    0.135E-01
DAV:  25    -0.213860810629E+03   -0.64349E-03   -0.27299E-04  6520   0.755E-02    0.134E-01
DAV:  26    -0.213861293568E+03   -0.48294E-03   -0.19170E-04  6224   0.589E-02    0.694E-02
DAV:  27    -0.213861791368E+03   -0.49780E-03   -0.11610E-04  6008   0.446E-02    0.968E-02
DAV:  28    -0.213861994833E+03   -0.20346E-03   -0.98778E-05  6520   0.301E-02    0.263E-02
DAV:  29    -0.213862175645E+03   -0.18081E-03   -0.17794E-05  5664   0.228E-02    0.210E-02
DAV:  30    -0.213862397411E+03   -0.22177E-03   -0.12783E-05  4704   0.157E-02    0.206E-02
DAV:  31    -0.213862508667E+03   -0.11126E-03   -0.90047E-06  4536   0.127E-02    0.164E-02
DAV:  32    -0.213862588796E+03   -0.80130E-04   -0.53973E-06  3960   0.998E-03    0.115E-02
DAV:  33    -0.213862643758E+03   -0.54962E-04   -0.20272E-06  3992   0.749E-03    0.601E-03
DAV:  34    -0.213862699774E+03   -0.56016E-04   -0.20795E-06  3808   0.633E-03    0.604E-03
DAV:  35    -0.213862721332E+03   -0.21558E-04   -0.66871E-07  3856   0.383E-03    0.325E-03
DAV:  36    -0.213862737555E+03   -0.16223E-04   -0.42344E-07  3696   0.306E-03    0.156E-03
DAV:  37    -0.213862749404E+03   -0.11849E-04   -0.31694E-07  3704   0.221E-03    0.128E-03
DAV:  38    -0.213862757181E+03   -0.77774E-05   -0.21453E-07  3640   0.155E-03    0.915E-04
DAV:  39    -0.213862760416E+03   -0.32345E-05   -0.11793E-07  3568   0.110E-03    0.550E-04
DAV:  40    -0.213862762029E+03   -0.16134E-05   -0.81432E-08  3576   0.877E-04    0.241E-04
DAV:  41    -0.213862762810E+03   -0.78068E-06   -0.56216E-08  3480   0.624E-04
   1 F= -.21946886E+03 E0= -.21944795E+03  d E =-.418111E-01
