84
lattice="3.0899999140 0.0000000000 0.0000000000 0.0000000000 11.2700004580 0.0000000000 0.0000000000 0.0000000000 39.2999992370" Properties=species:S:1:pos:R:3:force:R:3 energy=-560.9131630800 virial="-38.1202914169 -3.6438796497 3.4364945930 -3.6438796497 -56.4608251582 0.6208823977 3.4364945930 0.6208823977 -17.2859263144"
Ga 1.7661300000 3.6801700000 22.1930100000 -0.8978810000 -0.3736020000 -1.6701070000
Ga 1.8052000000 9.1965700000 22.0417400000 0.0071280000 -0.6028940000 -1.4354540000
Ga 1.8339600000 2.5508500000 28.1049900000 -0.1944540000 1.3256890000 0.4639140000
Ga 1.0943700000 8.3739300000 28.4367800000 -0.2028770000 -1.7946790000 -2.9552580000
Ga 0.8242800000 11.2492700000 26.1682500000 1.5622650000 1.9577330000 0.7499230000
Ga 1.8537200000 5.5437100000 26.0966200000 -0.3279250000 -0.8406980000 1.7425030000
Ga 2.4969900000 4.6025600000 32.7548300000 -0.2465820000 -0.5166720000 0.2631490000
Ga 2.5394100000 10.0052400000 33.0247600000 -0.0509100000 -0.0433200000 -0.0680970000
Ga 2.9855400000 2.6340600000 25.0754600000 1.0460940000 0.2152860000 0.0803750000
Ga 2.6177600000 8.5684200000 25.3923500000 -0.6527130000 -0.6807030000 0.0096340000
Ga 0.5788700000 1.4842300000 31.4512200000 -0.7154220000 -0.9875510000 -0.1795690000
Ga 0.9841400000 7.2182900000 31.4966400000 -0.9707580000 0.7523690000 -0.1323610000
Ga 0.4304900000 0.7765800000 22.1971800000 -0.3853230000 -0.4677070000 -0.4920590000
Ga 0.0389100000 6.4844000000 22.8468400000 -0.7735770000 0.6470860000 0.0563730000
Ga 0.4227700000 5.3038400000 29.3617000000 0.2464760000 -1.5233940000 -1.0966110000
Ga 2.5014000000 11.0849600000 29.1998500000 -0.0793200000 -0.3480920000 1.3380340000
O 1.5484800000 5.4428000000 22.8206300000 0.5029010000 -0.2490170000 -0.1795660000
O 1.9772800000 10.9586300000 22.7410700000 -0.0562310000 1.1473870000 0.4157080000
O 2.0047200000 4.1041900000 29.2943700000 -0.4050420000 -0.0108480000 -0.3940870000
O 0.9143800000 9.9158100000 29.1982700000 0.4096400000 1.3255790000 1.0034790000
O 1.6567700000 3.9125900000 25.1707000000 -0.4399160000 0.5260670000 -0.1284450000
O 1.0012700000 9.6508900000 25.4024200000 0.8760940000 -1.7250350000 -1.2236090000
O 2.0550200000 2.2830100000 32.0931900000 0.8373280000 0.8121150000 -0.2451140000
O 2.4498900000 7.9882300000 32.1662500000 1.2715830000 0.3122620000 -0.0126780000
O 2.4755300000 11.2121400000 27.2709100000 -1.0963710000 0.2805600000 -0.8146060000
O 0.2548800000 5.5384900000 27.3329000000 0.9092750000 0.2015690000 -1.2900650000
O 0.2293900000 4.1795400000 20.8453200000 -0.6732390000 0.3272640000 0.9803340000
O 0.3474900000 9.9223500000 20.7979400000 -0.6257040000 0.4271610000 0.5077380000
O 0.2757500000 2.6156200000 27.0731300000 -0.6196620000 -0.3366860000 0.2662920000
O 2.6087500000 8.1971300000 27.2787100000 -0.0260000000 0.2939900000 0.9454850000
O 1.7059400000 1.6099600000 20.9249100000 0.0755380000 -0.0057560000 -0.9124670000
O 1.6983000000 7.4607300000 20.9710200000 0.3543510000 -0.9033780000 -0.3082950000
O 2.7467300000 11.0536100000 31.3726500000 0.3820680000 0.9510460000 -1.1260740000
O 0.6181200000 5.4468800000 31.3100200000 -0.6577160000 -1.2793250000 0.7248140000
O 0.1043500000 2.7321200000 22.9713500000 0.6280830000 -0.7244490000 0.4781980000
O 0.2207800000 8.3288800000 22.9903400000 -0.0232350000 0.9005320000 0.5222720000
O 1.3035300000 1.3041000000 24.9298000000 -0.1579920000 -0.1652640000 0.3934280000
O 2.3453600000 6.8101800000 24.8225900000 0.2350310000 0.4763850000 0.1546490000
O 1.1135500000 1.2300200000 29.2705100000 -0.0578140000 0.2181470000 1.3226030000
O 1.3081600000 7.0040800000 29.5957200000 0.1319820000 0.2680340000 0.0443320000
Si 0.0142300000 10.0610400000 9.2379500000 0.8949820000 1.6654070000 -1.1506780000
Si 0.1237100000 4.2970900000 8.9967600000 0.3975240000 1.7171120000 1.2771350000
Si 1.6793400000 1.5284300000 9.2716900000 0.4858460000 1.8431480000 -2.3011450000
Si 1.7117100000 7.2076500000 9.0651400000 -0.1286480000 1.8786760000 1.6023280000
Si 3.0751500000 0.5331600000 11.6657400000 1.3934590000 -1.2414590000 1.0396930000
Si 0.1445800000 6.0923500000 11.7071400000 0.3890840000 0.1980690000 -0.5000730000
Si 1.5944300000 8.9680400000 11.6970700000 0.0800570000 0.0082180000 -0.5960010000
Si 1.6027900000 3.2424900000 11.6398100000 0.7255600000 0.7397050000 0.5439610000
Si 0.2021500000 4.1832700000 14.2665300000 -0.6590330000 -1.5536810000 -2.0438410000
Si 0.1093800000 9.8225600000 14.1660300000 0.2802170000 -0.3436080000 -0.2253680000
Si 1.5909900000 1.3805100000 14.1293700000 1.2796070000 -0.8097570000 1.2417570000
Si 1.7677800000 7.0120900000 14.1901700000 -0.0642860000 -0.9250550000 0.3478190000
Si 0.1165200000 2.3177200000 16.7316100000 0.9916250000 0.4660680000 -0.9984870000
Si 0.1300400000 8.0513800000 16.6670000000 0.7118630000 0.0554710000 1.4385710000
Si 1.7309200000 10.8558700000 16.6816900000 -0.5951020000 -1.2337700000 -0.1338280000
Si 1.7112100000 5.2736400000 16.6692400000 -0.5952860000 -0.7284380000 0.2733110000
Si 0.0656500000 4.4074700000 19.2318200000 0.2747970000 -0.6439710000 -1.3787760000
Si 0.1355700000 10.0001800000 19.1475900000 0.9866130000 -0.2536050000 0.0274850000
Si 1.6625700000 7.2041300000 19.3249900000 1.5823600000 0.7591980000 -0.3932400000
Si 1.7212000000 1.6052700000 19.1278500000 0.2003060000 -1.3427040000 2.1980640000
C 0.2172200000 2.4797400000 8.5282200000 -1.0966720000 -0.2924220000 0.6736170000
C 0.1399500000 8.3573200000 8.5355600000 -0.0532550000 -2.7783440000 2.3653800000
C 1.6304100000 11.1479100000 8.6009400000 -0.2060660000 -3.7383470000 -0.6510130000
C 1.7025300000 5.4470300000 8.4654000000 -0.3523160000 -2.2380100000 -0.4502700000
C 0.1071600000 4.1942800000 11.0314600000 -0.6073540000 0.7430330000 -1.1040680000
C 0.0053800000 9.9905800000 11.0911800000 0.4295320000 -0.9511380000 0.2523240000
C 1.5889100000 1.4013800000 11.0664600000 -0.7024310000 1.1314010000 0.6564260000
C 1.7130000000 7.1442600000 11.0841200000 -0.4864790000 -1.0298090000 -0.9751660000
C 0.1062500000 0.4034600000 13.5688600000 -0.8689020000 0.0700360000 -0.4140760000
C 0.2610200000 5.9473500000 13.6452100000 -0.7657810000 1.8050770000 -0.8469640000
C 1.6832800000 8.7913100000 13.5494300000 -0.2989380000 1.5010780000 0.5550120000
C 1.6596300000 3.1306000000 13.5403100000 0.3198290000 2.0691870000 0.6346630000
C 0.1315300000 9.8534300000 16.0344200000 0.4579400000 0.6132590000 0.6380840000
C 0.1304700000 4.2096900000 16.0762800000 0.3149170000 0.4216250000 1.3464990000
C 1.7405200000 1.3217700000 16.0773600000 -1.2106020000 1.9962980000 -0.5805530000
C 1.6992000000 7.1182300000 16.1103700000 -0.0554880000 -0.7302610000 -1.1702200000
C 1.5722300000 5.3425000000 18.5627000000 1.0614760000 -0.2346270000 1.8236830000
C 1.6945700000 10.9995900000 18.5693600000 0.0690460000 -0.5645540000 0.3877540000
C 0.2747800000 8.1299500000 18.6052800000 -2.4776980000 0.3714010000 -0.7190150000
C 0.1975400000 2.4787700000 18.6013100000 -1.0507960000 0.9135580000 -0.1160930000
H 0.1640000000 2.2058200000 7.4506400000 0.0625300000 0.2786340000 0.2690770000
H 0.3034700000 8.2906300000 7.5060500000 -0.0545100000 0.2062220000 -2.2574820000
H 1.6754900000 5.4258300000 7.3377100000 0.0465370000 0.0082440000 0.5456420000
H 1.7014100000 11.0081800000 7.4678900000 -0.2452360000 0.3862460000 1.0693550000
84
lattice="3.0899999140 0.0000000000 0.0000000000 0.0000000000 11.2700004580 0.0000000000 0.0000000000 0.0000000000 39.2999992370" Properties=species:S:1:pos:R:3:force:R:3 energy=-561.3606555500 virial="-35.1195377883 -5.4552657124 -1.2231259375 -5.4552657124 -68.2023062564 0.9163023172 -1.2231259375 0.9163023172 -11.3751788490"
Ga 1.7313100000 3.6632800000 22.1208500000 -0.2564360000 -0.2444470000 -0.1960100000
Ga 1.8059600000 9.2244400000 21.9954700000 0.0595010000 -0.7199550000 -0.6822680000
Ga 1.8872000000 2.5597000000 28.0946300000 -1.2156450000 0.4326810000 1.2903000000
Ga 1.0802000000 8.3683500000 28.3920100000 -1.4280060000 -0.5311420000 -0.8325100000
Ga 0.8050700000 0.0158500000 26.1499700000 0.4294280000 0.8502550000 0.7887110000
Ga 1.8981400000 5.5511000000 26.1258200000 0.3352340000 -0.6107590000 0.1178890000
Ga 2.4495800000 4.5557700000 32.7778900000 -0.1801180000 -0.5108100000 -0.0857780000
Ga 2.5384500000 9.9966200000 33.1130500000 -0.0036360000 0.1854880000 -0.8455530000
Ga 2.9755000000 2.6680000000 25.0622300000 1.0373950000 -0.0800260000 0.2525550000
Ga 2.5807800000 8.5950800000 25.3801000000 -0.3409680000 0.1702430000 0.1962730000
Ga 0.5922900000 1.4944700000 31.5019800000 1.0506540000 -1.2245980000 -0.5815970000
Ga 0.9525000000 7.1657600000 31.5293600000 -0.4698120000 0.8022200000 0.2318690000
Ga 0.4999900000 0.7598400000 22.2175800000 -0.8584330000 0.0750410000 0.0046940000
Ga 0.0184400000 6.5063800000 22.8340700000 0.5560170000 0.7410730000 0.3469080000
Ga 0.4995000000 5.2514300000 29.2726900000 0.0274380000 -0.3583630000 0.3470180000
Ga 2.5089900000 11.0517100000 29.1516600000 -0.1374190000 0.2391150000 2.3532910000
O 1.6125300000 5.4851200000 22.7299900000 -0.8385430000 -0.4198190000 0.2409580000
O 2.0059800000 11.0028900000 22.7280400000 0.2675980000 0.2584460000 0.2834270000
O 2.0205200000 4.1218300000 29.1811900000 0.2100550000 0.1704080000 -0.1904420000
O 0.9470500000 9.9104100000 29.3128400000 0.0266700000 0.2232980000 -0.4569150000
O 1.5928000000 3.9219200000 25.0912000000 0.0771240000 0.9653130000 0.5656550000
O 0.9873200000 9.6450400000 25.3957900000 0.3345490000 -1.1399100000 -0.9686930000
O 2.1876000000 2.3548900000 32.1159500000 -0.8584330000 0.8361440000 -0.1024490000
O 2.4512000000 8.0427000000 32.2170100000 0.4935590000 -0.7692930000 -0.4864920000
O 2.3763600000 11.1462800000 27.2156500000 0.3269840000 0.5377830000 -0.0766880000
O 0.3938000000 5.4874200000 27.2828100000 -0.1210430000 0.6724900000 -1.1105630000
O 0.1767100000 4.2169300000 20.9657100000 -0.5300500000 -0.2326950000 -1.8692050000
O 0.3300200000 10.0135600000 20.7264300000 -0.1570290000 -0.3591200000 3.1714350000
O 0.2826800000 2.6237900000 27.0861600000 0.1315400000 -0.5502430000 -0.4409840000
O 2.4878300000 8.1978600000 27.2691700000 1.4946490000 -0.0484850000 0.3895610000
O 1.6632100000 1.5345200000 20.8472900000 0.2276420000 0.6972470000 0.1308610000
O 1.6769000000 7.4718800000 20.9665000000 0.4520960000 -0.1003450000 -0.0509610000
O 2.6940100000 11.0896800000 31.3365700000 0.4079980000 0.8387540000 -0.0695710000
O 0.5805000000 5.3435200000 31.2567800000 -0.4237620000 -0.2711530000 0.7143420000
O 0.0988900000 2.6640800000 23.0899600000 0.0577170000 -0.2624150000 -1.8234860000
O 0.2389000000 8.3669600000 22.9934000000 -0.1534660000 0.9823180000 -0.2784520000
O 1.2849100000 1.2651400000 24.9331600000 -0.0367440000 0.6779090000 0.1119530000
O 2.3205400000 6.9081800000 24.8087600000 -0.0695580000 -1.5507680000 0.3536070000
O 1.1877500000 1.3054700000 29.3930700000 0.0313820000 -0.0149810000 -0.1773110000
O 1.2761300000 7.0663300000 29.6469500000 -0.1856880000 -0.5099320000 -0.6698270000
Si 0.0377800000 10.1093300000 9.1861600000 0.4743490000 -2.2990610000 0.1301590000
Si 0.1795800000 4.3450900000 9.0201000000 0.4833040000 0.0775320000 0.2670530000
Si 1.6012000000 1.4863600000 9.2101900000 1.3331700000 1.0573080000 0.1443810000
Si 1.6711000000 7.2046200000 9.1500200000 0.1456000000 0.0075530000 0.2607240000
Si 3.0858800000 0.4927700000 11.6876800000 0.8878310000 0.5025290000 0.9243580000
Si 0.2610400000 6.0637200000 11.7869400000 -1.0046090000 0.8159580000 -3.3562930000
Si 1.5979800000 8.9765900000 11.6830100000 0.8353250000 -0.4573900000 0.0225980000
Si 1.5555300000 3.2275200000 11.6571400000 0.1426400000 3.0441240000 0.0542200000
Si 0.1464900000 4.1951700000 14.2631900000 -0.9194320000 0.0561090000 -0.5967290000
Si 0.0572500000 9.8213400000 14.1256300000 0.7505400000 -0.7552000000 1.8137710000
Si 1.5837900000 1.3516000000 14.2429200000 0.5282340000 -0.1993880000 -1.5942700000
Si 1.7340800000 6.9569200000 14.2204700000 0.9025260000 0.7252990000 -1.8577380000
Si 0.1461500000 2.3199700000 16.7109900000 -0.3550290000 2.0272870000 -0.4536320000
Si 0.1177600000 8.1095900000 16.6579100000 0.7586800000 -0.9785090000 0.2807340000
Si 1.6458200000 10.8888500000 16.7662900000 1.3430540000 -0.4476890000 -1.5973290000
Si 1.6893000000 5.2644500000 16.6623000000 1.3298730000 -0.1591170000 1.4353410000
Si 0.0587100000 4.4004500000 19.1962700000 0.6761100000 -0.1898380000 1.0650400000
Si 0.2032400000 9.9684900000 19.1459000000 -0.0484970000 0.1471900000 -1.9242040000
Si 1.7086000000 7.2338600000 19.3463900000 -0.0109990000 0.5993140000 -1.4090860000
Si 1.7582900000 1.5689700000 19.1482600000 -0.8202460000 -0.6031540000 1.0972090000
C 0.1627500000 2.4367000000 8.5789700000 -1.2892450000 0.2362250000 0.1408380000
C 0.0893000000 8.2327200000 8.6438200000 0.3473990000 -0.3461550000 1.5572370000
C 1.5917700000 10.9570200000 8.5970200000 -0.0335860000 1.2483170000 -0.3174320000
C 1.8101600000 5.3467100000 8.4078800000 -1.3545360000 0.1304060000 0.0008610000
C 0.0004600000 4.2377900000 10.9110800000 1.0657610000 0.0835650000 1.9838480000
C 0.0905500000 9.9908900000 11.0677400000 -0.7406460000 -0.3795060000 0.1200600000
C 1.5827600000 1.5099900000 11.1142800000 -0.3091260000 -2.3016840000 -0.5557600000
C 1.7504400000 7.1413800000 11.0670400000 -0.2901140000 -1.0222740000 0.5849310000
C 0.0748900000 0.3059600000 13.6129600000 -0.5012460000 2.8956140000 -0.6552400000
C 0.3043000000 5.9747800000 13.5947600000 -1.7683540000 0.5739640000 0.9532530000
C 1.6326400000 8.8395000000 13.6268500000 -0.2248760000 0.0701220000 -1.0242850000
C 1.5894200000 3.2866000000 13.6345700000 1.5349140000 -1.4878180000 -0.9065360000
C 0.1890200000 9.9626500000 16.0713700000 -1.5160410000 -0.7277090000 -0.0052430000
C 0.2589900000 4.2618500000 16.1187800000 -2.1452790000 -0.5597740000 0.2640260000
C 1.6446300000 1.4411800000 16.0681600000 0.5780830000 -0.4488120000 1.1980480000
C 1.7277900000 7.0329900000 15.9977900000 -0.3543720000 1.3951030000 2.2582050000
C 1.6019300000 5.3974300000 18.6652000000 0.5656540000 -0.9306580000 0.2111480000
C 1.7418600000 10.9566900000 18.6035000000 0.0240550000 0.2291460000 0.0453110000
C 0.1867200000 8.1166500000 18.5759500000 -0.4246280000 0.1125830000 0.1477490000
C 0.1820900000 2.5207500000 18.5724200000 -0.1466880000 -0.2928860000 0.5300890000
H 0.1802500000 2.3622500000 7.4833500000 -0.0891690000 -0.1406880000 -0.3129220000
H 0.1421000000 8.3685100000 7.6004500000 0.0121180000 -0.1820300000 -2.0147140000
H 1.8106100000 5.4619700000 7.2717400000 -0.1315650000 -0.2446770000 1.0295690000
H 1.6053800000 11.2371800000 7.5151400000 -0.0113730000 -0.7281930000 0.1651030000
84
lattice="3.0899999140 0.0000000000 0.0000000000 0.0000000000 11.2700004580 0.0000000000 0.0000000000 0.0000000000 39.2999992370" Properties=species:S:1:pos:R:3:force:R:3 energy=-560.8900055000 virial="-28.1214495762 -5.3051895916 -4.6976328668 -5.3051895916 -72.1748089608 -1.9694917558 -4.6976328668 -1.9694917558 -12.8796985809"
Ga 1.7175000000 3.6560700000 22.0931900000 -0.2449970000 -0.1170000000 0.2071190000
Ga 1.8063600000 9.2308000000 21.9752700000 0.1249230000 -0.5196240000 -0.3228830000
Ga 1.9015500000 2.5659300000 28.0955000000 -1.5113900000 0.0078620000 1.4160310000
Ga 1.0703100000 8.3620500000 28.3695200000 -1.8311730000 0.0196260000 0.0981230000
Ga 0.8015600000 0.0346000000 26.1471900000 -0.0398750000 -0.0789420000 0.4758460000
Ga 1.9143100000 5.5505900000 26.1381400000 0.8152400000 -0.4408500000 -0.7414490000
Ga 2.4321900000 4.5373000000 32.7857200000 -0.1725910000 -0.5282980000 -0.1919920000
Ga 2.5379400000 9.9942900000 33.1405900000 0.0027130000 0.2005090000 -1.0079100000
Ga 2.9769000000 2.6794700000 25.0581500000 0.8250340000 0.0907520000 0.2257760000
Ga 2.5660000000 8.6045200000 25.3762300000 -0.1323670000 -0.0338070000 0.0578740000
Ga 0.5998500000 1.4930100000 31.5172800000 1.3916460000 -1.0599650000 -0.7415580000
Ga 0.9387800000 7.1510400000 31.5411200000 -0.2536130000 0.5807080000 0.1371070000
Ga 0.5208500000 0.7539100000 22.2240200000 -0.9741250000 0.0893360000 0.1813210000
Ga 0.0123900000 6.5169300000 22.8305900000 0.8610080000 0.9384560000 0.4947970000
Ga 0.5267400000 5.2302000000 29.2411600000 -0.2180330000 0.1558770000 0.7440870000
Ga 2.5111000000 11.0404300000 29.1437400000 -0.1501880000 0.4729290000 2.4834020000
O 1.6249400000 5.4924200000 22.7016000000 -1.1689310000 -0.4457440000 0.3284970000
O 2.0197100000 11.0271300000 22.7297800000 0.3245120000 0.0590240000 0.3213400000
O 2.0267600000 4.1303300000 29.1380500000 0.5320460000 0.2377330000 -0.0722660000
O 0.9604200000 9.9219100000 29.3533700000 -0.1076330000 -0.3967870000 -1.0406850000
O 1.5686500000 3.9444800000 25.0726100000 0.3970340000 0.5962200000 0.6382070000
O 0.9920700000 9.6123400000 25.3713300000 -0.0019290000 -0.0092380000 -0.4407670000
O 2.2243100000 2.3953700000 32.1211400000 -1.1025720000 0.7443230000 -0.0303500000
O 2.4653700000 8.0522400000 32.2281200000 0.1680230000 -0.9635690000 -0.5508890000
O 2.3408700000 11.1331100000 27.1924300000 0.9171820000 0.4908590000 0.3540100000
O 0.4453500000 5.4808300000 27.2420400000 -0.7808640000 0.7135550000 -0.3428070000
O 0.1464200000 4.2286500000 20.9807900000 -0.2375960000 -0.4820590000 -2.0646610000
O 0.3201300000 10.0414000000 20.7648500000 -0.1644670000 -0.5828140000 0.9376120000
O 0.2839800000 2.6166500000 27.0864600000 0.3671260000 -0.5714450000 -0.4978520000
O 2.4675200000 8.1986200000 27.2788400000 1.9590250000 -0.1028590000 0.0411140000
O 1.6526500000 1.5192400000 20.8165400000 0.1347890000 0.7609850000 1.0685760000
O 1.6779400000 7.4700500000 20.9646400000 0.4511960000 0.1309440000 -0.3771020000
O 2.6844500000 11.1183300000 31.3198500000 0.3348450000 0.6817320000 0.3289320000
O 0.5576700000 5.2961800000 31.2549500000 -0.2392880000 0.2350090000 0.5154270000
O 0.1003600000 2.6331300000 23.1070300000 -0.0218390000 -0.0518970000 -2.3238250000
O 0.2429800000 8.4013400000 22.9930000000 -0.2519690000 0.4730310000 -0.4032640000
O 1.2768300000 1.2605000000 24.9389600000 0.0759390000 0.9546490000 -0.0593740000
O 2.3114200000 6.9208500000 24.8114200000 -0.0435930000 -1.7869860000 0.3248000000
O 1.2132500000 1.3311300000 29.4416900000 0.0911290000 0.0034200000 -0.7198080000
O 1.2627900000 7.0822000000 29.6555600000 -0.2910220000 -0.7920950000 -0.6568960000
Si 0.0531400000 10.1136200000 9.1634900000 -0.3196680000 -3.4568170000 1.1910870000
Si 0.2043400000 4.3675300000 9.0344000000 0.1909760000 -0.5572530000 0.0593570000
Si 1.5875800000 1.4864100000 9.1830400000 0.9138790000 0.7258530000 0.9149950000
Si 1.6579300000 7.2104500000 9.1867600000 0.2270220000 -0.9815580000 -0.2817650000
Si 0.0119900000 0.4795300000 11.7070400000 0.4389140000 0.9283800000 0.3848840000
Si 0.2940400000 6.0617900000 11.7846800000 -1.4910590000 0.7209780000 -3.3440080000
Si 1.6069000000 8.9762500000 11.6770600000 0.8531660000 -0.5929680000 0.1371250000
Si 1.5416100000 3.2515300000 11.6651400000 0.2091880000 2.3711430000 -0.1791010000
Si 0.1175600000 4.1939300000 14.2482800000 -0.4229770000 0.6053530000 0.3013340000
Si 0.0465700000 9.8116100000 14.1273400000 0.5994720000 0.1853750000 1.8591050000
Si 1.5895000000 1.3376900000 14.2720000000 0.1919680000 0.1907640000 -1.9405460000
Si 1.7304600000 6.9404600000 14.2159600000 0.8265130000 1.2906990000 -1.5811780000
Si 0.1574800000 2.3385700000 16.6947600000 -1.3324690000 2.5371720000 0.6917350000
Si 0.1228900000 8.1213900000 16.6611200000 0.5159720000 -1.1974810000 0.0221410000
Si 1.6262800000 10.8916000000 16.7802900000 1.6745730000 0.0734040000 -1.4547910000
Si 1.6912200000 5.2571300000 16.6715100000 1.6009600000 0.1412130000 1.8527670000
Si 0.0627100000 4.3946000000 19.1902800000 0.8698220000 -0.1258710000 1.5399920000
Si 0.2286200000 9.9583800000 19.1216500000 -0.3265580000 0.2636620000 0.2898870000
Si 1.7300500000 7.2519400000 19.3395200000 -0.8871400000 -0.0029850000 -0.9006680000
Si 1.7650200000 1.5460600000 19.1716400000 -0.9680050000 0.1499190000 0.0187370000
C 0.1082700000 2.4261300000 8.5987700000 -0.5828050000 0.2227790000 0.1524220000
C 0.0845500000 8.1590600000 8.6824300000 0.1276370000 1.4165580000 -1.8973270000
C 1.5748000000 10.8893100000 8.5952900000 0.6726420000 1.9383280000 1.2333770000
C 1.8187900000 5.2967400000 8.4041700000 -1.3804360000 0.7197340000 0.9129260000
C 3.0723500000 4.2582600000 10.9010900000 1.3294280000 -0.0035150000 2.4492620000
C 0.1069600000 9.9756300000 11.0653700000 -0.8854810000 -0.1449340000 -0.0171440000
C 1.5673600000 1.5081700000 11.1254000000 0.0515540000 -2.1194210000 -0.7653320000
C 1.7551000000 7.1092600000 11.0658500000 -0.1439950000 -0.4680880000 0.9943300000
C 0.0471100000 0.3366200000 13.6085100000 -0.1220720000 1.9787250000 0.0075290000
C 0.2785600000 6.0111800000 13.5902100000 -1.6879500000 -0.0705410000 0.9781990000
C 1.6076100000 8.8699300000 13.6349000000 0.0712720000 -0.5652510000 -1.1802160000
C 1.5975200000 3.3219000000 13.6544700000 1.1509180000 -1.8288880000 -1.2262140000
C 0.1809000000 9.9912500000 16.0902700000 -1.7204080000 -1.1111360000 -0.4013240000
C 0.2633900000 4.2728800000 16.1580900000 -2.4693310000 -0.7069890000 -0.8728370000
C 1.6121200000 1.4898800000 16.0876500000 1.6053390000 -1.4865400000 0.6887820000
C 1.7284300000 7.0283700000 15.9966000000 -0.3126220000 1.5632690000 2.2354140000
C 1.6313600000 5.3940700000 18.7196800000 0.0897070000 -0.6373300000 -0.5904340000
C 1.7590700000 10.9434700000 18.6211600000 0.0008670000 0.2758660000 -0.3836000000
C 0.1274500000 8.1172400000 18.5626500000 0.8331240000 0.2786260000 0.2901800000
C 0.1660700000 2.5385900000 18.5744300000 0.1415050000 -0.9377000000 0.3296960000
H 0.1788900000 2.4010500000 7.5117500000 -0.1928630000 -0.1613260000 -0.6774650000
H 0.0091200000 8.3669100000 7.5332100000 0.3283960000 -0.8162370000 1.2677300000
H 1.8277900000 5.4344000000 7.3040500000 -0.1819300000 -0.1443620000 0.1806560000
H 1.5473800000 11.1439800000 7.5763100000 0.0796030000 -0.1341700000 -2.0833580000
84
lattice="3.0899999140 0.0000000000 0.0000000000 0.0000000000 11.2700004580 0.0000000000 0.0000000000 0.0000000000 39.2999992370" Properties=species:S:1:pos:R:3:force:R:3 energy=-560.8450043600 virial="-25.9517566681 -5.0225999034 3.7743260293 -5.0225999034 -78.4481086942 -7.4950845616 3.7743260293 -7.4950845616 1.2776330652"
Ga 1.4725200000 3.5863200000 21.8558200000 0.3789960000 0.3623910000 -0.5656640000
Ga 1.8601800000 9.2215200000 21.8311600000 0.0231450000 0.5309370000 -0.5325700000
Ga 1.8808800000 2.3722400000 28.1351200000 1.0776870000 1.4133200000 -0.1157330000
Ga 0.7639300000 8.2303400000 28.2075400000 2.9695230000 0.5492080000 1.6067890000
Ga 0.8972800000 0.2371100000 26.2418400000 -0.9273210000 -0.9751370000 -0.4479700000
Ga 2.3580000000 5.6133600000 26.0232400000 -1.1454700000 -1.0742250000 1.0990820000
Ga 2.0806800000 4.2657600000 32.7541400000 0.9017900000 -0.0860150000 -0.3475970000
Ga 2.5117000000 9.9095500000 33.3074800000 -0.0170730000 -0.4456370000 -0.5756400000
Ga 0.2027900000 2.8132900000 24.8877400000 -0.1090740000 0.1756280000 0.7213670000
Ga 2.3840100000 8.7090600000 25.1746000000 0.9034550000 -0.5349730000 0.2702090000
Ga 1.0739800000 1.4383300000 31.4382200000 0.8803650000 0.8204070000 1.4348990000
Ga 0.6959300000 6.9134800000 31.5412300000 1.3741470000 -0.3276470000 0.7014780000
Ga 0.5374600000 0.7679300000 22.5099300000 0.4488700000 0.7190130000 -0.7487140000
Ga 2.9465200000 6.5591000000 22.8529200000 0.4472000000 -0.2988270000 -1.0637620000
Ga 0.7946100000 5.2659000000 29.0780000000 -0.1483920000 -1.7645820000 0.0791710000
Ga 2.4643400000 10.9732100000 29.6018000000 -0.4290200000 -0.7912600000 -0.7073230000
O 1.4278600000 5.4414300000 22.6048500000 -0.4617160000 0.3786900000 0.8575680000
O 2.1064300000 11.0559000000 22.6898200000 -0.7647040000 -0.6495700000 0.6325380000
O 2.3312700000 4.1746500000 29.1200100000 -0.6747540000 0.1164880000 -0.5663310000
O 0.8737400000 9.8792400000 29.2316400000 0.3706450000 0.0989320000 0.0053310000
O 1.7903300000 3.9565300000 25.1947900000 0.8975660000 0.7372320000 -0.0266640000
O 0.8628100000 9.6683600000 25.2955600000 -0.1823110000 1.1224760000 0.5531880000
O 2.7648700000 2.5389800000 32.0124900000 -1.5269380000 -0.8573520000 -0.0788830000
O 2.3267000000 7.7483100000 32.1466600000 -1.3377360000 0.2767010000 0.3176510000
O 2.4071200000 0.1865200000 27.2256700000 0.5695670000 -0.3148780000 1.2862040000
O 0.7619400000 5.8268500000 27.1439600000 0.5565030000 -0.3375410000 -0.3440820000
O 3.0624700000 4.2108300000 20.7484200000 -0.1036810000 0.1921660000 -0.5928920000
O 0.3456000000 10.1459000000 20.6959500000 -0.3167960000 -1.1341850000 0.7299430000
O 0.3647300000 2.6072800000 27.1167800000 -0.3291600000 -0.1881090000 -0.0191860000
O 2.4497900000 8.2018300000 27.2311700000 -3.3254780000 0.3015960000 -1.4209690000
O 1.5019700000 1.6942900000 20.9132400000 -0.1305930000 0.1634610000 -0.5421850000
O 1.9418200000 7.4321400000 20.9438000000 -0.2417270000 0.1243460000 -1.1390640000
O 2.6536000000 11.2459400000 31.5310900000 -0.3278830000 0.3222250000 -0.6132870000
O 0.7004300000 4.9378100000 31.5245800000 -0.0921980000 1.8512150000 -0.0636210000
O 3.0881100000 2.6909500000 22.9211100000 0.4187800000 0.0137860000 0.1003660000
O 0.2647000000 8.5260800000 22.9060700000 -0.2107370000 -0.6726090000 0.1307230000
O 1.3709500000 1.3079200000 24.8571300000 -0.4030170000 0.6085000000 -0.8464780000
O 2.5769400000 6.8962300000 24.7549600000 -0.0893990000 0.3059710000 -0.4828990000
O 1.1499900000 1.3627700000 29.5539300000 0.4396480000 -1.0086570000 -0.3810950000
O 0.7019900000 7.0208500000 29.6644400000 0.1417500000 -0.0629990000 -0.9294490000
Si 0.1040200000 9.8308500000 9.2948500000 0.6994740000 0.4715750000 -0.6538090000
Si 3.0394800000 4.0939100000 9.3718500000 1.0043140000 1.7973760000 -1.8424990000
Si 1.7020900000 1.2924500000 9.2279700000 0.3211730000 2.4288000000 -0.1034810000
Si 1.6028200000 6.9546200000 9.1588800000 0.5578160000 1.0468850000 1.6205830000
Si 0.1383200000 0.4932100000 11.6901300000 0.3110240000 -0.2878190000 0.7242540000
Si 3.0089100000 6.1316000000 11.8425200000 2.0915610000 0.5970850000 -1.0403170000
Si 1.6098600000 9.0452900000 11.7505800000 0.2445420000 -2.4687130000 0.8492410000
Si 1.6959900000 3.3029400000 11.8417000000 -0.7435480000 0.0684100000 -0.3799480000
Si 0.1442300000 4.4285500000 14.2926500000 -0.9934450000 -1.7914700000 0.4178900000
Si 0.1576600000 10.0891800000 14.1811200000 0.1533200000 -1.3917330000 1.1622110000
Si 1.6249800000 1.5900800000 14.1510100000 1.0150630000 -1.4654590000 0.8555600000
Si 1.5327300000 7.2438100000 14.3014200000 1.3793760000 -1.1021180000 -0.6595950000
Si 0.0251400000 2.4174800000 16.5928100000 1.7953660000 1.3343090000 2.1780440000
Si 0.0702200000 8.2305700000 16.7036200000 0.9547060000 -1.9578310000 0.6589870000
Si 1.7596700000 11.0148100000 16.7012500000 -1.2313070000 -0.9757690000 -0.3370700000
Si 1.6107800000 5.3154600000 16.6867700000 -0.6214510000 0.1291770000 0.2252260000
Si 0.0753700000 4.4324100000 19.0551800000 -0.3684500000 -0.9388220000 1.2834150000
Si 0.1294000000 10.0311000000 19.0484200000 1.0694820000 0.1841460000 1.2137360000
Si 1.7891400000 7.2764000000 19.2623800000 1.2311700000 -0.7849750000 0.7631750000
Si 1.6016700000 1.5907800000 19.2134800000 0.4660110000 0.8818650000 0.2912850000
C 0.1799600000 2.3204200000 8.7263100000 -0.4819110000 -0.2328170000 -0.3167730000
C 0.1328900000 8.0196000000 8.6478100000 -1.3107480000 0.0595880000 -1.4771360000
C 1.7230700000 10.8351500000 8.6304400000 -0.7724790000 -1.8237850000 1.8016450000
C 1.4994800000 5.0929200000 8.6686700000 0.3869180000 -0.0771760000 1.5514370000
C 0.1058600000 4.2513000000 11.1971500000 -0.2429250000 -0.3424720000 0.9145720000
C 0.0670300000 9.8926700000 11.1977400000 0.3361880000 0.9754850000 -1.4558800000
C 1.7111600000 1.3476500000 11.0992900000 -0.5118710000 1.1674180000 0.2436150000
C 1.5779600000 7.0830000000 11.1456700000 -1.0828970000 0.1668350000 -0.3046740000
C 0.1563700000 0.5975900000 13.5668600000 -0.8892880000 0.5068190000 -0.0843810000
C 0.0670900000 6.1613100000 13.7228600000 -0.7241670000 1.8736620000 -0.7966470000
C 1.7248000000 9.0561600000 13.6644600000 -0.9527550000 0.3554550000 -0.6596430000
C 1.6424000000 3.3949800000 13.7736000000 0.5157040000 0.7393970000 -2.0023670000
C 0.1418800000 10.0246700000 16.1092000000 0.6044070000 0.6165120000 -0.6491770000
C 0.0105000000 4.3239400000 16.1448100000 1.1080670000 0.3348530000 -0.6587140000
C 1.6825200000 1.4790300000 16.0220300000 -1.5598680000 0.4737610000 -0.4158240000
C 1.6284800000 7.1654100000 16.1339700000 -0.3261710000 1.2248100000 -0.0542960000
C 1.6101900000 5.3651500000 18.5253000000 0.6122150000 0.8520880000 1.8455800000
C 1.6751000000 11.0044400000 18.5505200000 0.2163240000 0.3939830000 0.0608300000
C 0.3300500000 8.1433800000 18.6214800000 -2.7120600000 1.3280990000 -1.1017620000
C 0.1184100000 2.5884800000 18.5384300000 -0.8091390000 -1.6417730000 -0.4929710000
H 0.3400900000 2.5960000000 7.6527500000 -0.4262720000 -0.5527580000 0.1419230000
H 0.0021600000 8.3192900000 7.5134200000 0.4327340000 -0.9829310000 1.4474270000
H 1.6129700000 5.2509500000 7.6022800000 -0.1315040000 -0.6850100000 -0.8544580000
H 1.7692900000 10.8478200000 7.5656100000 -0.1191600000 -0.1654500000 -1.2836640000
84
lattice="3.0899999140 0.0000000000 0.0000000000 0.0000000000 11.2700004580 0.0000000000 0.0000000000 0.0000000000 39.2999992370" Properties=species:S:1:pos:R:3:force:R:3 energy=-560.9730403200 virial="-10.5307582871 -1.2021209183 4.5628043910 -1.2021209183 -64.7889692913 6.7547067540 4.5628043910 6.7547067540 -6.5933806900"
Ga 1.5220900000 3.7208600000 21.9296800000 0.5667770000 -0.0603730000 -1.3507310000
Ga 1.4494800000 9.4478400000 21.9172500000 1.3165370000 -0.1937770000 0.1327940000
Ga 2.6162800000 2.2735700000 28.2431900000 -0.9955400000 -1.5982060000 -1.4025830000
Ga 0.8002900000 7.9722800000 28.0982800000 -1.4086150000 -0.4065580000 0.0367770000
Ga 0.7722300000 11.1491000000 26.2137500000 1.7770090000 1.1849100000 1.4965580000