84
lattice="3.0899999140 0.0000000000 0.0000000000 0.0000000000 11.2700004580 0.0000000000 0.0000000000 0.0000000000 39.2999992370" Properties=species:S:1:pos:R:3:force:R:3 energy=-561.1818760300 virial="-18.5733571661 -0.6562723100 0.0698060254 -0.6562723100 -78.5591047165 -5.7666678973 0.0698060254 -5.7666678973 -37.0421590520"
Ga 0.7954100000 3.4892100000 21.7737500000 0.1324500000 1.2558150000 -0.1368210000
Ga 0.8503700000 9.1447700000 21.7057400000 -0.0753870000 1.1878000000 -0.0337540000
Ga 1.7759000000 2.5146000000 28.2861600000 0.0098400000 -0.2826170000 -0.7806660000
Ga 1.7757000000 8.1496800000 28.2861700000 0.0150970000 0.0021120000 -0.5663820000
Ga 1.9225500000 10.9260300000 26.3774900000 0.2488760000 1.9065460000 2.6088660000
Ga 1.9227900000 5.2911400000 26.3773700000 -0.0765160000 -0.3204180000 0.8948300000
Ga 0.4768400000 4.3494000000 33.0626300000 0.0322510000 0.2334320000 -0.0103730000
Ga 0.4767100000 9.9844100000 33.0626500000 0.0279550000 0.2655110000 -0.0251390000
Ga 0.0751200000 2.6064900000 25.2647400000 1.0018520000 -0.8002530000 -1.5788110000
Ga 0.1324000000 8.2494200000 25.2529200000 -0.4906690000 0.8166210000 -1.4641840000
Ga 2.2496600000 1.5973600000 31.4194400000 -0.1022900000 0.1684880000 0.6419520000
Ga 2.2495700000 7.2324200000 31.4194900000 -0.0957790000 0.2145810000 0.7217110000
Ga 2.5291100000 0.6060100000 23.0649300000 1.0175180000 -0.0689430000 0.3201670000
Ga 2.5928500000 6.2058200000 23.1323600000 -0.1854620000 -1.4540800000 -1.1890540000
Ga 0.3565800000 5.1929200000 29.5168900000 -0.0880760000 -0.4437170000 0.4548030000
Ga 0.3563300000 10.8279400000 29.5168700000 -0.0971410000 -0.3393050000 0.1471290000
O 1.0385500000 5.0432400000 22.9184400000 0.1088560000 1.3112680000 0.3033700000
O 1.0774900000 10.7985900000 22.7929900000 -1.1262330000 -0.0007550000 0.0395350000
O 1.8741300000 3.9181300000 29.4848400000 0.0289690000 0.5520890000 -0.1838350000
O 1.8739100000 9.5530700000 29.4848200000 0.0292390000 0.3595260000 -0.1633670000
O 1.7253200000 3.6959200000 25.4331700000 -1.0474450000 0.6494890000 -0.2071570000
O 1.6406300000 9.4918000000 25.4710400000 0.1481720000 -4.1104050000 -2.3098900000
O 0.7044900000 2.5617700000 32.1444900000 0.0331610000 -1.2575700000 -1.0696960000
O 0.7043900000 8.1967300000 32.1444800000 0.0388160000 -1.2952200000 -1.0928310000
O 0.3717900000 10.8890600000 27.5714000000 -0.0575250000 0.3982250000 -1.2554410000
O 0.3719900000 5.2540700000 27.5714600000 0.0646320000 0.3840570000 -1.7728400000
O 2.6129700000 4.5287300000 20.7536500000 -0.3201260000 -1.1336600000 0.9358530000
O 2.6352700000 10.1638400000 20.6601200000 -0.1994240000 -0.8612610000 1.9136870000
O 0.2347200000 2.3762900000 27.1273500000 0.0468210000 -0.3223530000 2.5335870000
O 0.2345300000 8.0112900000 27.1274100000 -0.0884540000 -0.4205600000 2.0115680000
O 1.1592500000 1.9768700000 20.7847300000 0.2663640000 -0.2619380000 1.4699310000
O 1.2256500000 7.5947400000 20.8319400000 0.2781470000 -0.2921970000 -1.0398740000
O 0.1229300000 11.1622600000 31.3979300000 0.0181710000 0.5349750000 0.3300370000
O 0.1230000000 5.5272600000 31.3978800000 0.0130420000 0.5656540000 0.2764340000
O 0.1978200000 2.3747800000 23.2536100000 -0.3574060000 -0.3988330000 -0.0749330000
O 0.1147400000 7.9702800000 23.1508400000 0.1193640000 1.0502940000 0.9871620000
O 2.2258000000 0.8195100000 25.0085100000 0.4540910000 1.5045470000 0.1410180000
O 2.2752700000 6.4780400000 24.9789600000 -0.0633110000 0.9292250000 1.5974710000
O 1.8305400000 1.1296100000 29.5775600000 0.0353420000 0.0176080000 -0.5155360000
O 1.8304600000 6.7645700000 29.5775700000 0.0284360000 -0.0397940000 -0.6568070000
Si 2.6722700000 10.2195600000 8.8841000000 0.0036080000 -1.4608130000 1.3128450000
Si 2.6722700000 4.5844800000 8.8840700000 0.0047480000 -1.4538570000 1.3327360000
Si 1.1274600000 1.7683400000 8.8835000000 0.0012280000 -1.4523250000 1.3269840000
Si 1.1274500000 7.4034400000 8.8834600000 0.0036040000 -1.4608080000 1.3157660000
Si 2.6744600000 0.7804600000 11.4421400000 -0.0078480000 -1.0122670000 0.9775830000
Si 2.6744600000 6.4155100000 11.4420700000 0.0160530000 -1.0227990000 0.9735420000
Si 1.1290100000 9.2340300000 11.4446400000 0.0063370000 -0.9809020000 0.9068630000
Si 1.1290000000 3.5989100000 11.4446400000 0.0204890000 -0.9769210000 0.9966570000
Si 2.6757200000 4.4597900000 14.0072200000 0.1199040000 1.3576590000 1.0511990000
Si 2.6757300000 10.0948200000 14.0072500000 0.0825180000 1.5463330000 1.2711610000
Si 1.1331300000 1.6350300000 14.0020900000 -0.0283720000 1.4038480000 1.3611420000
Si 1.1331500000 7.2701800000 14.0022200000 0.2016520000 1.3766240000 1.3123050000
Si 2.7198000000 2.7041200000 16.6534300000 -0.5636760000 -0.2403800000 -2.0593280000
Si 2.7134300000 8.3789600000 16.5544100000 0.7515720000 -0.6036080000 0.0933760000
Si 1.1511300000 11.0953000000 16.6767300000 -0.0142180000 1.9511730000 -1.0582030000
Si 1.0549900000 5.5493100000 16.5826400000 2.7109310000 1.2246620000 1.0468390000
Si 2.6284100000 4.6690200000 19.0874400000 2.2030920000 -1.4640770000 0.7500870000
Si 2.6590200000 10.4096900000 19.0407000000 -1.2716840000 -3.0750270000 0.3472220000
Si 1.2032800000 7.5514600000 19.1527100000 -0.9375550000 -0.8809210000 -0.5874110000
Si 1.1119800000 1.9157000000 19.1891900000 2.0219400000 -1.9840110000 -1.6972140000
C 2.6723500000 2.6393400000 8.3332100000 0.0110790000 1.5672100000 -1.2725990000
C 2.6723500000 8.2742700000 8.3331900000 0.0109200000 1.5740470000 -1.2687800000
C 1.1271800000 11.0909400000 8.3349200000 0.0110630000 1.5840830000 -1.2637340000
C 1.1271800000 5.4559800000 8.3349300000 0.0110520000 1.5884030000 -1.2694460000
C 2.6740700000 4.4719900000 10.8376600000 -0.0033150000 1.3146750000 -0.9348360000
C 2.6740700000 10.1068900000 10.8376400000 -0.0018630000 1.2997750000 -0.8995870000
C 1.1288800000 1.6554500000 10.8366100000 0.0078790000 1.3124030000 -0.9081220000
C 1.1288800000 7.2903500000 10.8366200000 0.0120030000 1.3367350000 -0.8907270000
C 2.6776900000 0.7638500000 13.4055200000 -0.0209210000 -1.1064090000 -0.9330030000
C 2.6776800000 6.3987300000 13.4054600000 0.0064900000 -0.9873620000 -0.9632350000
C 1.1304900000 9.2190600000 13.4146700000 -0.0018530000 -0.9814770000 -0.7829700000
C 1.1305000000 3.5841200000 13.4147200000 0.0335280000 -0.9907950000 -0.9321740000
C 2.7159800000 10.2136900000 16.0553700000 -0.4470930000 -0.4010350000 -1.7599920000
C 2.7261800000 4.6477800000 15.9691500000 -2.0988670000 -1.6424160000 -0.5346350000
C 1.1117800000 1.7660200000 15.9403100000 0.8940920000 -0.5236830000 0.2246150000
C 1.2248900000 7.4410300000 15.9792800000 -1.5446760000 -0.9701320000 -1.4927260000
C 1.1729100000 5.5592200000 18.6481400000 -2.2420890000 1.4732570000 -2.1757910000
C 1.0599600000 11.2318900000 18.5721600000 1.8025710000 1.7577550000 -0.6957510000
C 2.6711400000 8.3773700000 18.3873100000 1.0682700000 0.8967760000 1.9240610000
C 2.7599200000 2.6348400000 18.4819000000 -2.5273860000 2.6819330000 0.3329720000
H 2.6751400000 2.7821800000 7.2000800000 -0.0086620000 -0.4432990000 0.8304980000
H 2.6751500000 8.4171800000 7.2001300000 -0.0081770000 -0.4434550000 0.8296450000
H 1.1297000000 5.5995900000 7.2018800000 -0.0071290000 -0.4446250000 0.8294130000
H 1.1297000000 11.2346000000 7.2018700000 -0.0074560000 -0.4479290000 0.8310290000
84
lattice="3.0899999140 0.0000000000 0.0000000000 0.0000000000 11.2700004580 0.0000000000 0.0000000000 0.0000000000 39.2999992370" Properties=species:S:1:pos:R:3:force:R:3 energy=-560.8420244200 virial="-18.7790594296 -1.5503053775 0.5702704667 -1.5503053775 -77.8609590418 -5.1652102306 0.5702704667 -5.1652102306 -40.1513887839"
Ga 0.8578000000 3.4447400000 21.6849300000 -0.1402800000 1.5624110000 0.2200390000
Ga 0.8113000000 9.1089600000 21.6810000000 0.6417440000 0.4166050000 1.0005720000
Ga 1.7759000000 2.5146000000 28.2861600000 -0.0008910000 -0.1806800000 -0.7860850000
Ga 1.7757000000 8.1496800000 28.2861700000 -0.0055610000 -0.0836290000 -0.9673380000
Ga 1.9225500000 10.9260300000 26.3774900000 0.2441670000 1.6574050000 2.0609710000
Ga 1.9227900000 5.2911400000 26.3773700000 0.1620600000 0.4248840000 0.8100550000
Ga 0.4768400000 4.3494000000 33.0626300000 0.0282400000 0.2455850000 -0.0743260000
Ga 0.4767100000 9.9844100000 33.0626500000 0.0280440000 0.2458560000 -0.0821550000
Ga 0.1277400000 2.5565200000 25.2461400000 0.7287540000 1.7650390000 -0.7543510000
Ga 0.1399000000 8.1890600000 25.1788900000 0.6510990000 1.8999320000 0.4294500000
Ga 2.2496600000 1.5973600000 31.4194400000 -0.1030830000 0.1699140000 0.6138310000
Ga 2.2495700000 7.2324200000 31.4194900000 -0.1050230000 0.1939800000 0.6033460000
Ga 2.6041800000 0.6254400000 23.1296600000 -0.2535380000 -1.7244290000 -0.3200710000
Ga 2.4627200000 6.2638100000 23.0550600000 0.1317020000 -2.3695140000 -0.6995810000
Ga 0.3565800000 5.1929200000 29.5168900000 -0.0871460000 -0.3553990000 0.3259600000
Ga 0.3563300000 10.8279400000 29.5168700000 -0.0852180000 -0.4359510000 0.1910980000
O 0.9871400000 5.0036000000 22.7985100000 0.0328310000 2.5091920000 1.1019610000
O 1.0452200000 10.6934600000 22.8705700000 0.0879330000 1.4437160000 0.2879910000
O 1.8741300000 3.9181300000 29.4848400000 0.0359190000 0.5008880000 -0.1587450000
O 1.8739100000 9.5530700000 29.4848200000 0.0397170000 0.5049500000 -0.0979870000
O 1.7455400000 3.7741900000 25.4034300000 -0.3872020000 -1.0897890000 -0.6097010000
O 1.8021600000 9.4570200000 25.4785500000 -0.6900640000 -3.1983590000 -2.1380190000
O 0.7044900000 2.5617700000 32.1444900000 0.0309810000 -1.2428290000 -1.0416590000
O 0.7043900000 8.1967300000 32.1444800000 0.0298180000 -1.2517370000 -1.0356640000
O 0.3717900000 10.8890600000 27.5714000000 0.0774040000 0.5176300000 -1.4996440000
O 0.3719900000 5.2540700000 27.5714600000 0.0534660000 0.3950720000 -1.6779450000
O 2.5976100000 4.5112500000 20.7485200000 -0.1496360000 -0.9615220000 -0.4053390000
O 2.6049000000 10.0956400000 20.7774500000 -0.8906830000 -0.1110320000 -0.9061280000
O 0.2347200000 2.3762900000 27.1273500000 0.1584390000 -0.2436140000 2.3507600000
O 0.2345300000 8.0112900000 27.1274100000 0.2233150000 -0.3288740000 1.7212720000
O 1.3096800000 1.9960900000 20.6681000000 -0.0945840000 -0.6559180000 1.9646590000
O 1.2777200000 7.5492900000 20.7580700000 -0.4158090000 0.3440150000 0.3127050000
O 0.1229300000 11.1622600000 31.3979300000 0.0204710000 0.5440270000 0.3949790000
O 0.1230000000 5.5272600000 31.3978800000 0.0233230000 0.5232080000 0.3838600000
O 0.2349800000 2.3659700000 23.2603200000 0.1113480000 -0.0687760000 -1.0736280000
O 0.1599600000 7.9790700000 23.2370400000 0.4302210000 0.5888810000 -1.2045890000
O 2.2644400000 0.9432700000 25.0170500000 -0.5933860000 -0.6345080000 0.8566550000
O 2.3332900000 6.5472100000 24.9652500000 -0.9251810000 -0.8723760000 1.4677930000
O 1.8305400000 1.1296100000 29.5775600000 0.0454600000 0.0015440000 -0.5057300000
O 1.8304600000 6.7645700000 29.5775700000 0.0474060000 -0.0862440000 -0.4868100000
Si 2.6722700000 10.2195600000 8.8841000000 0.0017150000 -1.4620490000 1.2766520000
Si 2.6722700000 4.5844800000 8.8840700000 0.0036680000 -1.4464300000 1.3130040000
Si 1.1274600000 1.7683400000 8.8835000000 0.0026160000 -1.4569000000 1.2926150000
Si 1.1274500000 7.4034400000 8.8834600000 0.0031280000 -1.4610340000 1.2944400000
Si 2.6744600000 0.7804600000 11.4421400000 0.0006660000 -1.0207530000 0.9040230000
Si 2.6744600000 6.4155100000 11.4420700000 0.0033840000 -1.0132690000 0.9894150000
Si 1.1290100000 9.2340300000 11.4446400000 -0.0166080000 -0.9702420000 0.8772380000
Si 1.1290000000 3.5989100000 11.4446400000 0.0041520000 -0.9888990000 0.9999950000
Si 2.6757200000 4.4597900000 14.0072200000 0.0273630000 1.3503600000 1.5929250000
Si 2.6757300000 10.0948200000 14.0072500000 -0.2011390000 1.3589530000 1.0787030000
Si 1.1331300000 1.6350300000 14.0020900000 -0.0089640000 1.3037410000 0.4727310000
Si 1.1331500000 7.2701800000 14.0022200000 0.0298900000 1.3779830000 0.5784280000
Si 2.7116700000 2.5639300000 16.6164200000 -0.5352250000 2.2749200000 -0.5545090000
Si 2.6392500000 8.3480500000 16.5889500000 0.7658850000 -0.2648460000 0.0686090000
Si 1.0666000000 11.0868400000 16.6071600000 -0.0870550000 1.9036360000 0.7143260000
Si 1.2071500000 5.5198300000 16.5487700000 -1.5479250000 0.6290830000 1.3970010000
Si 2.6035300000 4.6800300000 19.0543600000 4.1655270000 -1.9199550000 1.9234400000
Si 2.5623100000 10.3175900000 19.0826200000 1.2878160000 -1.0016280000 1.3392400000
Si 1.1212500000 7.5728900000 19.0983000000 -1.0176620000 -3.7172290000 1.5874430000
Si 1.2253500000 1.8931900000 19.0754000000 -1.6319250000 0.0965500000 -0.4278690000
C 2.6723500000 2.6393400000 8.3332100000 0.0109440000 1.5656780000 -1.2552960000
C 2.6723500000 8.2742700000 8.3331900000 0.0109440000 1.5784430000 -1.2579140000
C 1.1271800000 11.0909400000 8.3349200000 0.0111580000 1.5864360000 -1.2511930000
C 1.1271800000 5.4559800000 8.3349300000 0.0110510000 1.5874030000 -1.2596710000
C 2.6740700000 4.4719900000 10.8376600000 -0.0031270000 1.3164690000 -0.9220540000
C 2.6740700000 10.1068900000 10.8376400000 -0.0050060000 1.3061330000 -0.8665980000
C 1.1288800000 1.6554500000 10.8366100000 0.0102460000 1.2945700000 -0.8699720000
C 1.1288800000 7.2903500000 10.8366200000 0.0128570000 1.3419990000 -0.8774730000
C 2.6776900000 0.7638500000 13.4055200000 0.0053340000 -1.1139590000 -0.8595910000
C 2.6776800000 6.3987300000 13.4054600000 0.0061650000 -0.9294430000 -0.9965080000
C 1.1304900000 9.2190600000 13.4146700000 -0.0206400000 -0.8887750000 -0.7800370000
C 1.1305000000 3.5841200000 13.4147200000 0.0099830000 -1.1051210000 -0.9647140000
C 2.5961900000 10.2251000000 16.0832100000 0.7327570000 -1.3837320000 -2.0608180000
C 2.6717900000 4.6125100000 16.0173000000 1.5559890000 -1.6307320000 -2.2548790000
C 1.1370400000 1.7037300000 15.8945900000 0.1759720000 -0.7468350000 0.8003400000
C 1.1648900000 7.4494300000 15.8934800000 -0.9082660000 -0.8831130000 0.5374460000
C 1.2331100000 5.5206700000 18.5442100000 -4.6165750000 3.3998040000 -1.9670820000
C 1.0801300000 0.0065800000 18.6021500000 -0.7211890000 -0.3090240000 -1.4179260000
C 2.6059300000 8.3107000000 18.5485500000 1.9076170000 3.1096230000 -2.6746910000
C 2.6689200000 2.8416600000 18.4907300000 1.4599970000 -1.4415720000 -1.4303270000
H 2.6751400000 2.7821800000 7.2000800000 -0.0084050000 -0.4463880000 0.8361500000
H 2.6751500000 8.4171800000 7.2001300000 -0.0083240000 -0.4433160000 0.8337270000
H 1.1297000000 5.5995900000 7.2018800000 -0.0074520000 -0.4455620000 0.8333210000
H 1.1297000000 11.2346000000 7.2018700000 -0.0079110000 -0.4505290000 0.8354490000
84
lattice="3.0899999140 0.0000000000 0.0000000000 0.0000000000 11.2700004580 0.0000000000 0.0000000000 0.0000000000 39.2999992370" Properties=species:S:1:pos:R:3:force:R:3 energy=-559.9669093800 virial="-12.1961855202 -1.5473156432 -0.7033478124 -1.5473156432 -69.6487995162 -2.5403430851 -0.7033478124 -2.5403430851 -47.5649390195"
Ga 0.9018300000 3.4380200000 21.7520500000 -0.6658800000 4.4445730000 1.4699040000
Ga 0.7916800000 9.1364600000 21.8219500000 0.4564080000 0.7268680000 -2.7268490000
Ga 1.7759000000 2.5146000000 28.2861600000 0.0084230000 -0.1146760000 -0.8651470000
Ga 1.7757000000 8.1496800000 28.2861700000 0.0085350000 -0.1963870000 -1.0633340000
Ga 1.9225500000 10.9260300000 26.3774900000 0.0579510000 -0.1216720000 1.2962380000
Ga 1.9227900000 5.2911400000 26.3773700000 0.1306590000 0.4552630000 1.1124310000
Ga 0.4768400000 4.3494000000 33.0626300000 0.0266070000 0.2561640000 -0.0806510000
Ga 0.4767100000 9.9844100000 33.0626500000 0.0288130000 0.2395250000 -0.0775860000
Ga 0.0748600000 2.5463400000 25.1880500000 0.8030850000 2.8989560000 0.7523040000
Ga 0.0072400000 8.1848400000 25.1265200000 1.8584350000 1.7738300000 0.9165370000
Ga 2.2496600000 1.5973600000 31.4194400000 -0.1028480000 0.1787600000 0.6320530000
Ga 2.2495700000 7.2324200000 31.4194900000 -0.1074920000 0.1752300000 0.5806750000
Ga 2.5847800000 0.6278100000 23.1646900000 -1.1446830000 -2.8093620000 -1.6819460000
Ga 2.5883600000 6.2540900000 23.0520700000 0.5428370000 -1.2879600000 -0.6667510000
Ga 0.3565800000 5.1929200000 29.5168900000 -0.0912520000 -0.3369370000 0.3177350000
Ga 0.3563300000 10.8279400000 29.5168700000 -0.0836620000 -0.4654650000 0.3704060000
O 1.0974700000 5.1330700000 22.8475300000 -0.6796700000 0.6771110000 0.3155010000
O 0.9341000000 10.7594600000 22.6947600000 1.2241420000 2.4705880000 2.2154100000
O 1.8741300000 3.9181300000 29.4848400000 0.0292760000 0.5017950000 -0.1424390000
O 1.8739100000 9.5530700000 29.4848200000 0.0314410000 0.6066950000 -0.0989000000
O 1.6814600000 3.7960800000 25.4001400000 -0.0976990000 -1.6530540000 -0.9153180000
O 1.7479400000 9.3876800000 25.4013700000 -1.2411350000 -0.1863810000 -0.7914420000
O 0.7044900000 2.5617700000 32.1444900000 0.0321270000 -1.2520570000 -1.0474990000
O 0.7043900000 8.1967300000 32.1444800000 0.0282230000 -1.2401250000 -1.0302260000
O 0.3717900000 10.8890600000 27.5714000000 0.0899280000 0.4037920000 -1.8095950000
O 0.3719900000 5.2540700000 27.5714600000 0.0024220000 0.4032510000 -1.7042270000
O 2.6236600000 4.5030200000 20.7908000000 0.0776740000 -0.3208820000 -1.1223170000
O 2.6034900000 10.1653300000 20.7450600000 -0.3051360000 -1.3056560000 -0.1084910000
O 0.2347200000 2.3762900000 27.1273500000 -0.0035570000 -0.2235090000 1.7635550000
O 0.2345300000 8.0112900000 27.1274100000 0.0173760000 -0.1731330000 1.4802220000
O 1.1519700000 2.0267900000 20.8715000000 0.7251170000 -3.2810100000 -3.6283980000
O 1.1670100000 7.5602800000 20.7993900000 -0.1120130000 0.3757630000 -0.8034720000
O 0.1229300000 11.1622600000 31.3979300000 0.0192700000 0.5501900000 0.3856490000
O 0.1230000000 5.5272600000 31.3978800000 0.0238920000 0.5160740000 0.4066160000
O 0.1200100000 2.3119900000 23.2871400000 0.8209140000 1.9883530000 -1.0217130000
O 0.2026900000 8.0668600000 23.1711800000 -0.8616810000 -1.2788650000 1.2310180000
O 2.3121400000 0.9240100000 25.0265600000 -1.1976950000 -1.6930620000 1.2040690000
O 2.2963900000 6.5473400000 24.9760000000 -0.5971980000 -0.9503720000 0.5239440000
O 1.8305400000 1.1296100000 29.5775600000 0.0371470000 -0.0606800000 -0.5262640000
O 1.8304600000 6.7645700000 29.5775700000 0.0395910000 -0.0995560000 -0.4380860000
Si 2.6722700000 10.2195600000 8.8841000000 0.0042130000 -1.4513150000 1.3116990000
Si 2.6722700000 4.5844800000 8.8840700000 0.0038950000 -1.4521710000 1.2746860000
Si 1.1274600000 1.7683400000 8.8835000000 0.0009340000 -1.4653170000 1.2658840000
Si 1.1274500000 7.4034400000 8.8834600000 0.0014060000 -1.4556290000 1.3077110000
Si 2.6744600000 0.7804600000 11.4421400000 -0.0128500000 -1.0377990000 0.9126730000
Si 2.6744600000 6.4155100000 11.4420700000 -0.0103830000 -1.0033120000 0.9452610000
Si 1.1290100000 9.2340300000 11.4446400000 0.0078230000 -0.9989570000 1.0554730000
Si 1.1290000000 3.5989100000 11.4446400000 0.0070010000 -0.9582090000 0.8577410000
Si 2.6757200000 4.4597900000 14.0072200000 0.0049320000 1.4159990000 0.6900630000
Si 2.6757300000 10.0948200000 14.0072500000 0.0753170000 1.0449620000 0.5499890000
Si 1.1331300000 1.6350300000 14.0020900000 -0.1120230000 1.3978890000 0.6332400000
Si 1.1331500000 7.2701800000 14.0022200000 -0.0603270000 1.4322450000 0.9416780000
Si 2.6133200000 2.6646800000 16.5077000000 0.8868080000 0.7404930000 2.2512860000
Si 2.7344800000 8.2744200000 16.6164700000 -1.1618320000 0.3464790000 -0.8022480000
Si 1.2430500000 11.1500500000 16.5311200000 -1.9326650000 0.6114650000 1.6813210000
Si 1.0800700000 5.3641800000 16.5417200000 1.5767370000 3.7263540000 1.9279500000
Si 2.7040500000 4.7620000000 19.0479700000 0.2605060000 -2.8376220000 3.2256850000
Si 2.6457700000 10.2926800000 19.0756400000 1.3233370000 -0.6433200000 1.4154410000
Si 1.0462800000 7.5786800000 19.1130800000 3.0369260000 -2.6086660000 2.3606500000
Si 1.1473400000 1.9755800000 19.1037400000 -1.2317210000 -3.4487690000 3.2767730000
C 2.6723500000 2.6393400000 8.3332100000 0.0107520000 1.5737750000 -1.2474920000
C 2.6723500000 8.2742700000 8.3331900000 0.0107260000 1.5706880000 -1.2571180000
C 1.1271800000 11.0909400000 8.3349200000 0.0107370000 1.5960740000 -1.2605120000
C 1.1271800000 5.4559800000 8.3349300000 0.0108650000 1.5801400000 -1.2500410000
C 2.6740700000 4.4719900000 10.8376600000 -0.0020230000 1.2833960000 -0.8608040000
C 2.6740700000 10.1068900000 10.8376400000 -0.0011850000 1.3433320000 -0.9323550000
C 1.1288800000 1.6554500000 10.8366100000 0.0088640000 1.3361160000 -0.8288130000
C 1.1288800000 7.2903500000 10.8366200000 0.0089050000 1.2984120000 -0.8992550000
C 2.6776900000 0.7638500000 13.4055200000 -0.0180980000 -0.9029100000 -0.8515370000
C 2.6776800000 6.3987300000 13.4054600000 -0.0178400000 -1.1591220000 -0.9407500000
C 1.1304900000 9.2190600000 13.4146700000 0.0163070000 -0.9997060000 -1.1294790000
C 1.1305000000 3.5841200000 13.4147200000 0.0130290000 -0.9748040000 -0.7896140000
C 2.6947500000 10.2274400000 15.9095400000 1.3275270000 -0.8943780000 0.0311160000
C 2.6737100000 4.5808100000 16.0221100000 -1.3553630000 -2.4919580000 -2.3323430000
C 1.0991200000 1.8182600000 15.9395500000 -0.1309410000 -1.7344290000 -1.2899210000
C 1.1090000000 7.3514100000 15.9137300000 0.9256730000 -0.6664080000 0.2405770000
C 1.1832000000 5.5771000000 18.5601700000 -1.2474980000 1.3753370000 -1.7535600000
C 1.1688700000 11.2060300000 18.6041500000 -1.2290020000 1.0519960000 -2.2240130000
C 2.6918700000 8.3327600000 18.5240600000 -2.3224010000 2.2251300000 -2.0582700000
C 2.6496900000 2.6486500000 18.5657000000 1.5172940000 3.4276180000 -3.4142550000
H 2.6751400000 2.7821800000 7.2000800000 -0.0089720000 -0.4460940000 0.8380630000
H 2.6751500000 8.4171800000 7.2001300000 -0.0089530000 -0.4438520000 0.8342280000
H 1.1297000000 5.5995900000 7.2018800000 -0.0075870000 -0.4513770000 0.8358410000
H 1.1297000000 11.2346000000 7.2018700000 -0.0075470000 -0.4437560000 0.8337340000
84
lattice="3.0899999140 0.0000000000 0.0000000000 0.0000000000 11.2700004580 0.0000000000 0.0000000000 0.0000000000 39.2999992370" Properties=species:S:1:pos:R:3:force:R:3 energy=-559.7677675500 virial="-14.3559781366 -5.5085598623 2.7578932386 -5.5085598623 -78.7152115586 -6.0952824098 2.7578932386 -6.0952824098 -42.1001744940"
Ga 0.8729900000 3.5481800000 21.8033900000 -0.0149630000 -1.0261640000 -2.3823370000
Ga 0.7804200000 9.1648500000 21.8111800000 0.7202360000 0.2487820000 -2.2269180000
Ga 1.7759000000 2.5146000000 28.2861600000 0.0024110000 -0.1842510000 -1.2796950000
Ga 1.7757000000 8.1496800000 28.2861700000 -0.0102700000 -0.1222430000 -0.9820360000
Ga 1.9225500000 10.9260300000 26.3774900000 0.0883070000 1.0065940000 2.1710360000
Ga 1.9227900000 5.2911400000 26.3773700000 -0.0812330000 -0.6890460000 1.1399640000
Ga 0.4768400000 4.3494000000 33.0626300000 0.0268540000 0.2208210000 -0.1876730000
Ga 0.4767100000 9.9844100000 33.0626500000 0.0243120000 0.2415360000 -0.1903340000
Ga 0.2056800000 2.5305700000 25.0817900000 -0.2101820000 1.4815800000 2.2228720000
Ga 0.2437400000 8.2415700000 25.1412900000 -0.0395200000 0.4466350000 0.8471710000
Ga 2.2496600000 1.5973600000 31.4194400000 -0.1160970000 0.1770470000 0.4654270000
Ga 2.2495700000 7.2324200000 31.4194900000 -0.1088980000 0.1720050000 0.5297280000
Ga 2.6485300000 0.6017800000 23.0861400000 0.3515960000 -1.8287810000 -0.5491540000
Ga 2.5614600000 6.2130700000 23.0115100000 -0.0172620000 -0.3721830000 0.5276680000
Ga 0.3565800000 5.1929200000 29.5168900000 -0.0867100000 -0.5283000000 0.2026620000
Ga 0.3563300000 10.8279400000 29.5168700000 -0.0773770000 -0.3518610000 0.1632010000
O 1.0307300000 5.0815400000 22.8156300000 -0.0270730000 1.8186700000 0.7992760000
O 1.1833500000 10.7190300000 22.9089400000 -1.2523390000 1.0768260000 0.3574890000
O 1.8741300000 3.9181300000 29.4848400000 0.0405280000 0.6339330000 -0.0085750000
O 1.8739100000 9.5530700000 29.4848200000 0.0512500000 0.5119120000 -0.0682180000
O 1.7313000000 3.7295300000 25.3723400000 0.2538780000 -0.8158390000 -0.7428830000
O 1.8472200000 9.4612300000 25.4018800000 -0.6727360000 -2.7771470000 -1.5471870000
O 0.7044900000 2.5617700000 32.1444900000 0.0165310000 -1.1877450000 -0.9549400000
O 0.7043900000 8.1967300000 32.1444800000 0.0219950000 -1.1987170000 -0.9762020000
O 0.3717900000 10.8890600000 27.5714000000 0.1352170000 0.3257670000 -1.6471490000
O 0.3719900000 5.2540700000 27.5714600000 0.0477820000 0.3683080000 -1.7254110000
O 2.5986900000 4.4722900000 20.6716800000 -0.0596240000 -0.8097350000 3.6566060000
O 2.5703400000 10.1653000000 20.8000400000 -0.0435770000 -0.7387330000 -0.2663190000
O 0.2347200000 2.3762900000 27.1273500000 0.0858830000 -0.1736320000 1.4431260000
O 0.2345300000 8.0112900000 27.1274100000 0.3023940000 -0.1583890000 1.3056480000
O 1.1817100000 1.9524000000 20.7782200000 -0.1444840000 0.4966750000 0.1341930000
O 1.1384200000 7.5641300000 20.6445400000 0.0511500000 0.5912330000 5.1883000000
O 0.1229300000 11.1622600000 31.3979300000 0.0348460000 0.4876230000 0.5496300000
O 0.1230000000 5.5272600000 31.3978800000 0.0277520000 0.5371890000 0.5264710000
O 0.1818300000 2.3614700000 23.2079600000 0.0305410000 0.4236500000 -0.8575180000
O 0.0626600000 8.0389500000 23.1926800000 0.0744330000 -0.4183040000 -0.2011910000
O 2.2824900000 0.8445500000 24.9990700000 0.1027970000 1.0773070000 0.1237580000
O 2.2045600000 6.5001600000 25.0078800000 0.2254750000 1.2080140000 -0.5415200000
O 1.8305400000 1.1296100000 29.5775600000 0.0586160000 -0.1428350000 -0.3030750000
O 1.8304600000 6.7645700000 29.5775700000 0.0583100000 -0.0616660000 -0.4265590000
Si 2.6722700000 10.2195600000 8.8841000000 0.0026780000 -1.4460320000 1.3182500000
Si 2.6722700000 4.5844800000 8.8840700000 0.0046730000 -1.4601370000 1.2591740000
Si 1.1274600000 1.7683400000 8.8835000000 0.0030800000 -1.4684500000 1.2971700000
Si 1.1274500000 7.4034400000 8.8834600000 0.0005030000 -1.4505280000 1.3013640000
Si 2.6744600000 0.7804600000 11.4421400000 0.0053350000 -1.0032640000 0.9678080000
Si 2.6744600000 6.4155100000 11.4420700000 -0.0211370000 -0.9454040000 0.9086640000
Si 1.1290100000 9.2340300000 11.4446400000 -0.0120630000 -0.9658750000 1.0156060000
Si 1.1290000000 3.5989100000 11.4446400000 0.0163340000 -1.0766300000 0.8485750000
Si 2.6757200000 4.4597900000 14.0072200000 0.1400820000 1.5015150000 0.3594290000
Si 2.6757300000 10.0948200000 14.0072500000 -0.1441110000 1.4472640000 1.1765690000
Si 1.1331300000 1.6350300000 14.0020900000 0.0552330000 0.8434110000 0.8479990000
Si 1.1331500000 7.2701800000 14.0022200000 -0.1276020000 1.7707220000 1.2186050000
Si 2.7374800000 2.6646800000 16.4528200000 -0.6937240000 0.5788060000 3.0341640000
Si 2.7336200000 8.3273800000 16.5134300000 -2.8533050000 2.0460170000 3.2291830000
Si 1.2349200000 11.1731600000 16.5528300000 -3.1369860000 -0.3214690000 2.2381700000
Si 1.1201400000 5.4740400000 16.4470900000 1.3728260000 2.4737390000 3.5420210000
Si 2.6663200000 4.7208300000 19.0999400000 -0.9105110000 -1.8263960000 -2.0715890000
Si 2.5888400000 10.3447500000 19.0540000000 4.8252130000 -4.5588160000 2.9330650000
Si 1.0708700000 7.4898400000 19.0948700000 2.8341580000 -1.1271320000 -2.3820150000
Si 1.0858800000 1.9198200000 19.1033100000 1.1929950000 -0.9584080000 0.5740960000
C 2.6723500000 2.6393400000 8.3332100000 0.0107960000 1.5812900000 -1.2567810000
C 2.6723500000 8.2742700000 8.3331900000 0.0109770000 1.5648280000 -1.2579070000
C 1.1271800000 11.0909400000 8.3349200000 0.0108910000 1.5912750000 -1.2657860000
C 1.1271800000 5.4559800000 8.3349300000 0.0109240000 1.5817040000 -1.2423760000
C 2.6740700000 4.4719900000 10.8376600000 0.0002460000 1.3106900000 -0.8114200000
C 2.6740700000 10.1068900000 10.8376400000 -0.0045810000 1.3169610000 -0.9343310000
C 1.1288800000 1.6554500000 10.8366100000 0.0103280000 1.3456460000 -0.8953930000
C 1.1288800000 7.2903500000 10.8366200000 0.0103790000 1.2884120000 -0.8869070000
C 2.6776900000 0.7638500000 13.4055200000 0.0179710000 -0.8728300000 -1.0817900000
C 2.6776800000 6.3987300000 13.4054600000 -0.0425650000 -1.0769900000 -0.9156340000
C 1.1304900000 9.2190600000 13.4146700000 -0.0031290000 -1.0126950000 -1.0914920000
C 1.1305000000 3.5841200000 13.4147200000 0.0179730000 -1.0748470000 -0.7186850000
C 2.6083500000 10.2615800000 15.9751000000 3.3012090000 -1.8068760000 -1.9013620000
C 2.7385300000 4.6295600000 15.9404100000 -1.8399450000 -2.3277630000 -2.1547350000
C 1.1564100000 1.6738800000 15.9973800000 0.6003160000 1.3108770000 -2.4665970000
C 1.0749600000 7.4896500000 16.0034700000 2.9912080000 -3.2264580000 -3.2172680000
C 1.0826500000 5.5423500000 18.5700500000 1.0367980000 1.5015770000 -2.0794970000
C 1.1782300000 11.0977800000 18.6148500000 -4.5786670000 4.3839900000 -3.0267960000
C 2.7694700000 8.3553500000 18.5169300000 -3.4288110000 1.9212400000 -2.7388270000
C 2.6735900000 2.7641400000 18.4503100000 -0.5243190000 0.4648060000 -1.3014840000
H 2.6751400000 2.7821800000 7.2000800000 -0.0083340000 -0.4418970000 0.8357180000
H 2.6751500000 8.4171800000 7.2001300000 -0.0090150000 -0.4446220000 0.8339100000
H 1.1297000000 5.5995900000 7.2018800000 -0.0072680000 -0.4524450000 0.8373800000
H 1.1297000000 11.2346000000 7.2018700000 -0.0078000000 -0.4453350000 0.8324210000
84
lattice="3.0899999140 0.0000000000 0.0000000000 0.0000000000 11.2700004580 0.0000000000 0.0000000000 0.0000000000 39.2999992370" Properties=species:S:1:pos:R:3:force:R:3 energy=-560.7726153900 virial="-12.2954276155 -3.9185508130 -1.3540592166 -3.9185508130 -78.4299738200 -8.1124134465 -1.3540592166 -8.1124134465 -28.4986173741"
Ga 0.7467000000 3.5354500000 21.7306300000 1.0093530000 -1.1843380000 -0.2927890000
Ga 0.7692500000 9.1392400000 21.7777900000 0.3096530000 -1.0494580000 -1.2242200000
Ga 1.7759000000 2.5146000000 28.2861600000 0.0104090000 -0.1621480000 -0.7549410000
Ga 1.7757000000 8.1496800000 28.2861700000 0.0088120000 -0.1585020000 -0.6891340000
Ga 1.9225500000 10.9260300000 26.3774900000 0.0971010000 0.1202440000 0.3797070000