168
lattice="6.1459999080 0.0000000000 0.0000000000 3.0730000890 10.6451859210 0.0000000000 0.0000000000 0.0000000000 41.7204780580" Properties=species:S:1:pos:R:3:force:R:3 energy=-1138.9922182900 virial="24.3152962428 1.3314838310 0.9700338610 1.3314838310 13.1299904510 -0.4708935319 0.9700338610 -0.4708935319 0.1194611232"
Ga 2.8774500000 7.0397800000 24.6397200000 -0.0005770000 -0.0000110000 -0.0025560000
Ga 5.9504400000 7.0398300000 24.6397100000 0.0006330000 0.0006010000 -0.0035480000
Ga 2.8229400000 1.2033300000 25.8321700000 0.0005510000 0.0012680000 0.0011830000
Ga 5.8959400000 1.2033400000 25.8321800000 0.0002820000 0.0009690000 0.0011230000
Ga 2.8560900000 8.7274600000 21.8131600000 0.0016490000 -0.0028660000 -0.0028150000
Ga 5.9290700000 8.7274600000 21.8131600000 0.0009950000 -0.0074510000 0.0034780000
Ga 5.8951000000 3.2628100000 23.2906400000 -0.0027630000 0.0015370000 -0.0028330000
Ga 2.8221000000 3.2627800000 23.2906200000 -0.0011830000 0.0014680000 -0.0020650000
Ga 4.3708600000 9.1176500000 26.5653600000 0.0001420000 0.0001650000 -0.0005240000
Ga 7.4438500000 9.1176100000 26.5653400000 0.0003970000 0.0003770000 -0.0003930000
Ga 5.8626800000 4.3244900000 26.4632300000 0.0010450000 -0.0029440000 0.0038030000
Ga 2.7896600000 4.3244600000 26.4632700000 0.0012010000 -0.0030030000 0.0038120000
Ga 4.3956200000 5.8540900000 21.7456100000 0.0062380000 -0.0079680000 -0.0068980000
Ga 7.4686400000 5.8540800000 21.7456200000 -0.0056980000 -0.0070270000 -0.0075810000
Ga 1.2998900000 0.7498500000 21.8685000000 -0.0032970000 0.0009690000 0.0079530000
Ga 4.3729100000 0.7498500000 21.8684900000 0.0029650000 0.0058790000 0.0029220000
Ga 5.5844400000 8.2560200000 32.0438900000 -0.0011480000 -0.0010640000 -0.0020340000
Ga 2.5114200000 8.2560000000 32.0438400000 -0.0010610000 -0.0008910000 -0.0020720000
Ga 4.6359100000 2.8947100000 31.9646800000 -0.0001960000 0.0025870000 -0.0022750000
Ga 1.5628900000 2.8947400000 31.9647000000 0.0001000000 0.0023230000 -0.0020090000
Ga 8.8049800000 10.5245500000 30.4122300000 0.0002710000 -0.0007560000 0.0008790000
Ga 5.7319900000 10.5246000000 30.4122800000 0.0004600000 -0.0008110000 0.0009220000
Ga 4.4654500000 5.1606100000 30.3564400000 0.0017280000 -0.0024650000 -0.0008510000
Ga 7.5384500000 5.1605700000 30.3564100000 0.0018920000 -0.0022630000 -0.0008620000
Ga 0.1939700000 0.4265600000 33.8650900000 0.0017820000 0.0003500000 0.0027520000
Ga 3.2669900000 0.4265700000 33.8650700000 0.0017940000 0.0003780000 0.0029150000
Ga 3.8549500000 5.7062300000 33.8360800000 0.0018960000 0.0008320000 0.0026090000
Ga 6.9279200000 5.7062400000 33.8361200000 0.0020770000 0.0006780000 0.0025080000
Ga 5.9109300000 7.6254300000 28.6474000000 0.0062030000 -0.0002820000 -0.0018540000
Ga 2.8379300000 7.6253900000 28.6473400000 0.0062210000 -0.0001650000 -0.0012470000
Ga 4.2955800000 2.3277800000 28.5638200000 -0.0009450000 0.0026370000 0.0008690000
Ga 1.2225900000 2.3277700000 28.5638300000 -0.0010030000 0.0024830000 0.0007860000
O 5.9301200000 5.2211800000 20.6534600000 -0.0016990000 0.0009680000 0.0319580000
O 2.8571000000 5.2211800000 20.6534300000 0.0056900000 0.0022580000 0.0090200000
O 5.9360800000 10.3280200000 20.5938400000 0.0056470000 0.0075010000 -0.0109750000
O 9.0090500000 10.3280300000 20.5938500000 -0.0021440000 0.0145530000 0.0092430000
O 2.8353500000 9.4177900000 27.5329700000 -0.0029780000 0.0028600000 0.0071520000
O 5.9083600000 9.4177800000 27.5329800000 -0.0030250000 0.0029670000 0.0071630000
O 4.2969500000 4.0538200000 27.5306900000 0.0003240000 0.0009470000 0.0093920000
O 1.2239200000 4.0538000000 27.5307300000 0.0005870000 0.0010020000 0.0093480000
O 4.3687800000 8.0926000000 24.9866400000 0.0034100000 -0.0004380000 -0.0015150000
O 7.4418100000 8.0926300000 24.9866000000 0.0034350000 -0.0006300000 -0.0013050000
O 5.9907800000 2.9131900000 25.1584000000 0.0023930000 0.0017240000 -0.0024880000
O 2.9177800000 2.9132100000 25.1583800000 0.0022580000 0.0013460000 -0.0023770000
O 2.8736300000 6.8678400000 22.7126400000 0.0005980000 0.0040240000 0.0014130000
O 5.9466300000 6.8678800000 22.7126500000 0.0009680000 0.0053110000 0.0032360000
O 2.8347900000 1.4324200000 22.8752700000 -0.0090210000 -0.0070110000 0.0019320000
O 5.9077900000 1.4324000000 22.8753300000 -0.0055460000 -0.0053630000 0.0021580000
O 7.4648900000 9.5620500000 22.5807800000 -0.0050820000 0.0009700000 0.0031150000
O 4.3918800000 9.5620900000 22.5808200000 -0.0021980000 0.0017680000 0.0021930000
O 4.3596500000 4.2377200000 22.8491100000 0.0013810000 0.0023450000 0.0016530000
O 1.2866700000 4.2377500000 22.8491600000 0.0031630000 0.0025420000 0.0004650000
O 5.2640200000 5.5384800000 25.2944600000 0.0015550000 -0.0081960000 -0.0026620000
O 2.1909000000 5.5385700000 25.2946900000 0.0021770000 -0.0079720000 -0.0035840000
O 4.3615700000 0.2229300000 25.6181500000 -0.0014710000 -0.0113000000 -0.0053340000
O 1.2885700000 0.2229400000 25.6181700000 -0.0011070000 -0.0114200000 -0.0054130000
O 4.3700400000 7.2389200000 27.7294800000 -0.0048060000 -0.0119850000 -0.0069660000
O 7.4430200000 7.2389400000 27.7294800000 -0.0057590000 -0.0123000000 -0.0072820000
O 2.7620800000 1.7098300000 27.7093100000 -0.0017480000 -0.0067520000 0.0044860000
O 5.8350700000 1.7098900000 27.7093100000 -0.0017800000 -0.0069990000 0.0047920000
O 4.4067600000 7.6756900000 20.6513600000 0.0007540000 0.0124750000 0.0066180000
O 7.4797800000 7.6756700000 20.6513700000 -0.0035650000 0.0096070000 0.0013870000
O 4.3917600000 2.1841400000 20.6540400000 -0.0045620000 -0.0303510000 0.0325470000
O 1.3188000000 2.1841100000 20.6540600000 0.0074960000 -0.0115520000 0.0109160000
O 8.6283000000 10.1202700000 32.2911800000 0.0029920000 0.0100390000 0.0097000000
O 5.5552100000 10.1203000000 32.2912200000 0.0032870000 0.0097030000 0.0099220000
O 4.5449400000 4.7538100000 32.2219500000 -0.0014840000 0.0002890000 0.0011820000
O 1.4719200000 4.7538400000 32.2219400000 -0.0013580000 0.0001680000 0.0012940000
O 5.6474900000 8.6626800000 30.1988700000 0.0035830000 -0.0021780000 -0.0022600000
O 2.5744400000 8.6626400000 30.1988100000 0.0033610000 -0.0021270000 -0.0019010000
O 4.7429900000 3.3103300000 30.1070000000 0.0078340000 -0.0008510000 -0.0028250000
O 1.6700200000 3.3103000000 30.1070200000 0.0076630000 -0.0008960000 -0.0029660000
O 1.1187100000 0.7518500000 29.9037700000 0.0075010000 0.0058400000 -0.0075580000
O 4.1917100000 0.7518800000 29.9037400000 0.0076910000 0.0053800000 -0.0070890000
O 6.0056400000 6.0291400000 29.8754800000 0.0100490000 0.0026220000 -0.0001840000
O 2.9326300000 6.0291300000 29.8754500000 0.0102060000 0.0025040000 -0.0001410000
O 4.0477800000 7.4498800000 32.6656100000 -0.0042860000 -0.0077740000 0.0058550000
O 7.1208000000 7.4499300000 32.6657700000 -0.0044110000 -0.0075590000 0.0054830000
O 3.0996200000 2.1118500000 32.6012200000 0.0048550000 -0.0067390000 0.0037230000
O 6.1726100000 2.1119000000 32.6012800000 0.0053580000 -0.0070850000 0.0037190000
Si 5.9448000000 10.3366700000 8.9224700000 -0.1644390000 -0.5636720000 -0.1606890000
Si 9.0106400000 10.3181000000 8.9216700000 0.0104500000 -0.1120970000 0.1973780000
Si 2.8758900000 4.9778600000 8.9163800000 -0.3939390000 0.4779780000 0.3161890000
Si 5.9302000000 5.0035500000 8.9440300000 0.2605150000 -0.2309300000 -0.4326830000
Si 1.3306300000 2.3319600000 8.9288200000 0.1792240000 0.1059010000 0.0585220000
Si 4.4162800000 2.3243800000 8.9305100000 -0.2146000000 0.2890130000 -0.3492480000
Si 4.4142100000 7.6605100000 8.9264300000 -0.1817820000 0.0031280000 -0.1190650000
Si 7.4874400000 7.6284600000 8.9312900000 -0.1140820000 0.8252430000 -0.2203100000
Si 2.8607600000 1.4301200000 11.4533000000 0.1521130000 0.5912930000 -0.0573640000
Si 5.9540400000 1.4470500000 11.4577100000 -0.4530380000 0.0782440000 -0.3384920000
Si 2.8834300000 6.7812300000 11.4607800000 -0.2382180000 -0.3484560000 -0.3527110000
Si 5.9477000000 6.7688300000 11.4283700000 -0.1598370000 -0.0104820000 0.3773910000
Si 4.4020300000 9.4216500000 11.4622200000 0.3313620000 0.1881410000 -0.6868220000
Si 7.4757200000 9.4313200000 11.4460300000 0.1731560000 -0.1282320000 -0.2942240000
Si 1.3316400000 4.1251900000 11.4417900000 0.1181160000 -0.2807800000 0.1405200000
Si 4.4061500000 4.1008400000 11.4348200000 -0.0789080000 0.0959760000 0.3445340000
Si 5.9333000000 10.3171000000 13.9463300000 0.1523170000 0.0841220000 0.1698520000
Si 9.0055100000 10.3034100000 13.9497900000 0.2341120000 0.3384120000 -0.0911120000
Si 2.8508700000 5.0013700000 13.9660800000 0.3182800000 -0.2474660000 0.0984870000
Si 5.9243400000 4.9906900000 13.9577300000 0.3516710000 -0.0376520000 0.0891370000
Si 1.3325800000 2.3531200000 13.9507700000 -0.1047520000 -0.2082430000 0.6787320000
Si 4.4035400000 2.3381100000 13.9762200000 0.1903020000 0.0637290000 -0.2305120000
Si 4.4050800000 7.6492700000 13.9513800000 0.0094890000 -0.0893960000 -0.0518970000
Si 7.4680000000 7.6675400000 13.9547600000 0.0554960000 -0.3538590000 0.1007910000
Si 2.8827300000 3.2219700000 16.5048800000 -0.5036210000 0.1502890000 0.2153010000
Si 5.9215900000 3.2045600000 16.4961100000 0.6205550000 0.6776600000 0.5988450000
Si 2.8681400000 8.5527200000 16.4459200000 -0.2523940000 -0.3674970000 0.4175140000
Si 5.9474200000 8.5427900000 16.4631800000 -0.3014280000 0.0430430000 -0.0675690000
Si 4.4163800000 5.8907600000 16.4702500000 -0.4548460000 -0.1274560000 0.1389150000
Si 7.4643400000 5.8603100000 16.4657500000 0.1710970000 0.5317220000 0.2390320000
Si 1.3265000000 0.5556600000 16.4558500000 0.1041800000 0.2097380000 0.0139660000
Si 4.4023900000 0.5632500000 16.4507000000 0.1809970000 -0.0159060000 0.2130390000
Si 5.9374800000 10.3384900000 18.9297900000 -0.0174040000 -0.0105590000 0.0033490000
Si 9.0104800000 10.3385200000 18.9298200000 0.0136700000 -0.0382550000 0.0160890000
Si 2.8608800000 5.0067800000 18.9801700000 -0.0046400000 -0.0096640000 -0.0555180000
Si 5.9338700000 5.0067800000 18.9801900000 0.0085010000 -0.0370140000 -0.0194740000
Si 4.4028300000 7.6644800000 18.9544800000 -0.0337800000 -0.0062020000 -0.0127130000
Si 7.4758500000 7.6644700000 18.9544900000 0.0257630000 -0.0270200000 -0.0512900000
Si 1.3247100000 2.3123800000 19.0467700000 -0.0268670000 0.0470590000 -0.0932220000
Si 4.3977100000 2.3123800000 19.0467600000 0.0208640000 0.0728830000 0.0129120000
C 2.8698000000 3.2244300000 8.3196900000 0.1181150000 -0.4126200000 1.2623450000
C 5.9552200000 3.2190200000 8.3308100000 -0.3056410000 0.2348610000 -0.1593090000
C 2.8750800000 8.5456800000 8.3380100000 -0.0875100000 -0.1891390000 -0.1555850000
C 5.9438700000 8.5372200000 8.3321000000 0.2049810000 0.2556960000 0.1383950000
C 1.3202700000 0.5612400000 8.3283700000 0.1827750000 0.0508840000 -0.2808630000
C 4.4026200000 0.5588600000 8.3098800000 0.1226380000 0.0624200000 0.8201620000
C 4.3989200000 5.8818600000 8.3308800000 0.0486080000 0.0420010000 -0.1164790000
C 7.4671400000 5.8935900000 8.3206300000 0.2311050000 -0.7198300000 0.7197740000
C 5.9506700000 10.3233200000 10.8035300000 -0.2338050000 -0.1820170000 0.2428210000
C 9.0317200000 10.3071000000 10.8191900000 -0.3846100000 0.2478940000 -0.1366400000
C 2.8777500000 4.9873600000 10.8264100000 -0.1149940000 0.4019410000 -0.4451310000
C 5.9382500000 4.9969600000 10.8151000000 0.0113810000 -0.0068410000 -0.0211700000
C 1.3296600000 2.3424600000 10.8214400000 0.0537500000 -0.1106430000 -0.1301620000
C 4.3865100000 2.3474100000 10.7968900000 0.4378270000 -0.6305820000 0.4582630000
C 4.4143700000 7.6663800000 10.7987500000 -0.0610740000 -0.2281840000 0.4202500000
C 7.4729300000 7.6440800000 10.8075000000 0.3529420000 0.2221700000 0.1505620000
C 2.8630300000 1.4584900000 13.3520500000 0.1800090000 -0.2460620000 -0.2386100000
C 5.9530700000 1.4450800000 13.3368500000 -0.3447940000 0.0104370000 0.1608830000
C 2.8497000000 6.7597000000 13.3445900000 0.3617740000 0.4235350000 -0.1321330000
C 5.9556900000 6.7554300000 13.3290300000 -0.4381040000 0.3050750000 -0.1049050000
C 4.4028600000 9.4325100000 13.3191500000 0.0028770000 -0.2668320000 0.3801500000
C 7.4803700000 9.4249700000 13.3271100000 -0.2923630000 0.1729480000 -0.0697200000
C 1.3352100000 4.1103900000 13.3330100000 -0.3321000000 0.1660760000 -0.0268590000
C 4.4016600000 4.1094400000 13.3336900000 -0.1918090000 -0.0470710000 -0.0035080000
C 2.8614000000 5.0101200000 15.8569100000 0.2555010000 -0.4060110000 -0.1917610000
C 5.9340400000 5.0011200000 15.8479600000 -0.0832050000 -0.4129500000 -0.1516690000
C 5.9500400000 10.3217000000 15.8263900000 -0.2664350000 -0.1403970000 -0.0994450000
C 9.0157800000 10.3023000000 15.8161900000 -0.0940850000 0.3517250000 0.0993490000
C 1.3158600000 2.3460700000 15.8713400000 0.4226050000 -0.0957370000 -0.6310970000
C 4.4231100000 2.3510000000 15.8590100000 -0.6329870000 -0.4191300000 -0.3229270000
C 4.3839500000 7.6512100000 15.8323800000 0.5700170000 0.2680270000 0.0471620000
C 7.4687600000 7.6549700000 15.8355000000 0.1058790000 -0.1144100000 0.0650580000
C 1.3278400000 0.5612100000 18.3260600000 -0.0195610000 -0.0736510000 -0.0409030000
C 4.4008500000 0.5612000000 18.3260500000 0.0100690000 -0.0127680000 -0.1371940000
C 4.3982600000 5.8884400000 18.3673500000 0.0527450000 0.0435060000 -0.0492420000
C 7.4712700000 5.8884400000 18.3673600000 -0.0456700000 -0.0339500000 -0.0779710000
C 2.8659200000 8.5464900000 18.3593700000 0.0161670000 0.0368790000 -0.1765500000
C 5.9389400000 8.5464600000 18.3593500000 0.0039420000 -0.0075790000 -0.0221700000
C 2.8612900000 3.2286900000 18.4157000000 0.0934780000 -0.0172390000 -0.0595180000
C 5.9342900000 3.2287000000 18.4157000000 -0.0626140000 -0.0329950000 -0.1262740000
H 1.3121300000 0.5701300000 7.2128400000 0.0349140000 -0.0066770000 0.2946430000
H 5.9433900000 3.2399200000 7.2163300000 0.0271460000 -0.0382720000 0.2814410000
H 7.4522000000 5.8760100000 7.2351700000 0.0016320000 0.0247770000 -0.6006390000
H 2.8876900000 8.5317700000 7.2282900000 -0.0516790000 0.0203800000 0.1130600000
H 2.8633300000 3.2181300000 7.2519300000 -0.0037980000 -0.0107380000 -1.2536920000
H 5.9260700000 8.5466100000 7.2280200000 0.0605960000 -0.0285680000 -0.0449000000
H 4.4157900000 0.5636200000 7.2266600000 -0.0117920000 -0.0005160000 -0.6702330000
H 4.4005900000 5.8815600000 7.2207200000 0.0406670000 -0.0023370000 0.1450230000
168
lattice="6.1459999080 0.0000000000 0.0000000000 3.0730000890 10.6451859210 0.0000000000 0.0000000000 0.0000000000 41.7204780580" Properties=species:S:1:pos:R:3:force:R:3 energy=-1138.9526372500 virial="25.0862055162 0.9540023554 0.5331284838 0.9540023554 11.4997686287 -0.7799727813 0.5331284838 -0.7799727813 1.5887886433"
Ga 2.8774500000 7.0397800000 24.6397200000 -0.0007570000 0.0007170000 0.0009520000
Ga 5.9504400000 7.0398300000 24.6397100000 0.0005280000 0.0014880000 0.0006470000
Ga 2.8229400000 1.2033300000 25.8321700000 0.0003540000 -0.0000910000 0.0047600000
Ga 5.8959400000 1.2033400000 25.8321800000 0.0001610000 -0.0003590000 0.0045870000
Ga 2.8560900000 8.7274600000 21.8131600000 0.0054080000 0.0036100000 -0.0040710000
Ga 5.9290700000 8.7274600000 21.8131600000 -0.0028380000 0.0017050000 -0.0017320000
Ga 5.8951000000 3.2628100000 23.2906400000 -0.0036000000 -0.0014350000 0.0027690000
Ga 2.8221000000 3.2627800000 23.2906200000 -0.0005420000 -0.0010460000 0.0034800000
Ga 4.3708600000 9.1176500000 26.5653600000 0.0000480000 -0.0003390000 0.0024480000
Ga 7.4438500000 9.1176100000 26.5653400000 0.0002640000 -0.0001370000 0.0026310000
Ga 5.8626800000 4.3244900000 26.4632300000 0.0010040000 -0.0031470000 0.0073180000
Ga 2.7896600000 4.3244600000 26.4632700000 0.0011010000 -0.0031200000 0.0073200000
Ga 4.3956200000 5.8540900000 21.7456100000 0.0042960000 0.0033860000 0.0047900000
Ga 7.4686400000 5.8540800000 21.7456200000 -0.0037760000 0.0003160000 0.0071710000
Ga 1.2998900000 0.7498500000 21.8685000000 -0.0028360000 -0.0127020000 0.0081950000
Ga 4.3729100000 0.7498500000 21.8684900000 0.0023760000 -0.0030950000 -0.0033380000
Ga 5.5844400000 8.2560200000 32.0438900000 -0.0013060000 -0.0013110000 0.0004240000
Ga 2.5114200000 8.2560000000 32.0438400000 -0.0012180000 -0.0011420000 0.0003920000
Ga 4.6359100000 2.8947100000 31.9646800000 -0.0003160000 0.0023580000 0.0003180000
Ga 1.5628900000 2.8947400000 31.9647000000 -0.0000240000 0.0020970000 0.0005800000
Ga 8.8049800000 10.5245500000 30.4122300000 0.0001050000 -0.0012290000 0.0039200000
Ga 5.7319900000 10.5246000000 30.4122800000 0.0002960000 -0.0012870000 0.0039620000
Ga 4.4654500000 5.1606100000 30.3564400000 0.0016370000 -0.0027640000 0.0023120000
Ga 7.5384500000 5.1605700000 30.3564100000 0.0018010000 -0.0025600000 0.0023000000
Ga 0.1939700000 0.4265600000 33.8650900000 0.0021610000 0.0001610000 0.0048240000
Ga 3.2669900000 0.4265700000 33.8650700000 0.0021730000 0.0001890000 0.0049830000
Ga 3.8549500000 5.7062300000 33.8360800000 0.0012820000 0.0007010000 0.0046580000
Ga 6.9279200000 5.7062400000 33.8361200000 0.0014650000 0.0005480000 0.0045590000
Ga 5.9109300000 7.6254300000 28.6474000000 0.0060340000 -0.0008540000 0.0017120000
Ga 2.8379300000 7.6253900000 28.6473400000 0.0060550000 -0.0007450000 0.0023170000
Ga 4.2955800000 2.3277800000 28.5638200000 -0.0009490000 0.0018200000 0.0049910000
Ga 1.2225900000 2.3277700000 28.5638300000 -0.0010200000 0.0016750000 0.0048990000
O 5.9301200000 5.2211800000 20.6534600000 -0.0010710000 -0.0032760000 0.0065660000
O 2.8571000000 5.2211800000 20.6534300000 0.0018700000 -0.0026700000 -0.0108780000
O 5.9360800000 10.3280200000 20.5938400000 0.0003890000 0.0089150000 0.0108950000
O 9.0090500000 10.3280300000 20.5938500000 0.0069750000 0.0153190000 0.0241130000
O 2.8353500000 9.4177900000 27.5329700000 -0.0030870000 0.0032080000 0.0049740000
O 5.9083600000 9.4177800000 27.5329800000 -0.0031230000 0.0033180000 0.0050010000
O 4.2969500000 4.0538200000 27.5306900000 0.0002090000 0.0014290000 0.0066130000
O 1.2239200000 4.0538000000 27.5307300000 0.0004590000 0.0014670000 0.0066010000
O 4.3687800000 8.0926000000 24.9866400000 0.0033530000 -0.0019540000 -0.0038330000
O 7.4418100000 8.0926300000 24.9866000000 0.0031570000 -0.0020340000 -0.0036540000
O 5.9907800000 2.9131900000 25.1584000000 0.0023100000 0.0023650000 -0.0063060000
O 2.9177800000 2.9132100000 25.1583800000 0.0021500000 0.0019300000 -0.0062940000
O 2.8736300000 6.8678400000 22.7126400000 -0.0008570000 -0.0003650000 -0.0014420000
O 5.9466300000 6.8678800000 22.7126500000 0.0020980000 0.0012210000 -0.0018270000
O 2.8347900000 1.4324200000 22.8752700000 -0.0094460000 -0.0045930000 -0.0010530000
O 5.9077900000 1.4324000000 22.8753300000 -0.0051710000 -0.0034890000 0.0001040000
O 7.4648900000 9.5620500000 22.5807800000 -0.0045180000 -0.0020910000 0.0037130000
O 4.3918800000 9.5620900000 22.5808200000 -0.0024340000 -0.0008750000 0.0049380000
O 4.3596500000 4.2377200000 22.8491100000 0.0015340000 0.0059750000 -0.0028820000
O 1.2866700000 4.2377500000 22.8491600000 0.0027480000 0.0049940000 -0.0044880000
O 5.2640200000 5.5384800000 25.2944600000 0.0015030000 -0.0080790000 -0.0051190000
O 2.1909000000 5.5385700000 25.2946900000 0.0020560000 -0.0080450000 -0.0058410000
O 4.3615700000 0.2229300000 25.6181500000 -0.0016280000 -0.0107470000 -0.0069380000
O 1.2885700000 0.2229400000 25.6181700000 -0.0012220000 -0.0108500000 -0.0069630000
O 4.3700400000 7.2389200000 27.7294800000 -0.0049650000 -0.0117630000 -0.0091600000
O 7.4430200000 7.2389400000 27.7294800000 -0.0059160000 -0.0120730000 -0.0094840000
O 2.7620800000 1.7098300000 27.7093100000 -0.0017650000 -0.0069630000 0.0014500000
O 5.8350700000 1.7098900000 27.7093100000 -0.0018140000 -0.0072160000 0.0017640000
O 4.4067600000 7.6756900000 20.6513600000 -0.0098480000 -0.0095310000 0.0160030000
O 7.4797800000 7.6756700000 20.6513700000 0.0060470000 -0.0047150000 -0.0081350000
O 4.3917600000 2.1841400000 20.6540400000 0.0030670000 0.0082370000 0.0284090000
O 1.3188000000 2.1841100000 20.6540600000 0.0017990000 0.0020220000 -0.0068600000
O 8.6283000000 10.1202700000 32.2911800000 0.0026390000 0.0092800000 0.0065970000
O 5.5552100000 10.1203000000 32.2912200000 0.0029330000 0.0089440000 0.0068200000
O 4.5449400000 4.7538100000 32.2219500000 -0.0013090000 -0.0005340000 -0.0020170000
O 1.4719200000 4.7538400000 32.2219400000 -0.0011820000 -0.0006530000 -0.0019070000
O 5.6474900000 8.6626800000 30.1988700000 0.0036000000 -0.0028130000 -0.0053290000
O 2.5744400000 8.6626400000 30.1988100000 0.0033800000 -0.0027620000 -0.0049770000
O 4.7429900000 3.3103300000 30.1070000000 0.0076330000 -0.0014190000 -0.0060900000
O 1.6700200000 3.3103000000 30.1070200000 0.0074630000 -0.0014640000 -0.0062270000
O 1.1187100000 0.7518500000 29.9037700000 0.0073450000 0.0063660000 -0.0096480000
O 4.1917100000 0.7518800000 29.9037400000 0.0075390000 0.0059060000 -0.0091790000
O 6.0056400000 6.0291400000 29.8754800000 0.0099480000 0.0030030000 -0.0021770000
O 2.9326300000 6.0291300000 29.8754500000 0.0101020000 0.0028860000 -0.0021340000
O 4.0477800000 7.4498800000 32.6656100000 -0.0042520000 -0.0071680000 0.0040540000
O 7.1208000000 7.4499300000 32.6657700000 -0.0043790000 -0.0069520000 0.0036820000
O 3.0996200000 2.1118500000 32.6012200000 0.0045600000 -0.0061190000 0.0018040000
O 6.1726100000 2.1119000000 32.6012800000 0.0050600000 -0.0064640000 0.0017980000
Si 5.9412500000 10.3469800000 8.9080200000 0.0637600000 -0.8583480000 0.3960270000
Si 9.0247200000 10.3165700000 8.9324200000 -0.2874570000 0.0985830000 0.0515100000
Si 2.8723000000 4.9866900000 8.9292100000 -0.4794330000 0.3446170000 -0.0033560000
Si 5.9223000000 5.0000700000 8.9299000000 0.3652760000 -0.0769260000 -0.2911270000
Si 1.3380600000 2.3442300000 8.9318000000 -0.1986780000 -0.3072030000 -0.2238170000
Si 4.4061400000 2.3248400000 8.9210000000 0.0867660000 0.4233040000 -0.0698300000
Si 4.4163200000 7.6698600000 8.9221600000 -0.3747400000 -0.1920950000 0.2766410000
Si 7.4778900000 7.6464400000 8.9362400000 0.1828560000 0.1713370000 -0.1116280000
Si 2.8739600000 1.4678400000 11.4394000000 -0.2322120000 -0.6879420000 0.0664260000
Si 5.9365200000 1.4507400000 11.4546400000 0.1669990000 0.0101580000 -0.2309750000
Si 2.8651500000 6.7593500000 11.4531900000 0.1829740000 0.1421050000 -0.0548630000
Si 5.9474900000 6.7589100000 11.4579400000 -0.0676090000 0.3523940000 -0.3681090000
Si 4.4161900000 9.4314300000 11.4413000000 -0.2902370000 -0.1365710000 0.3462520000
Si 7.4830200000 9.4214700000 11.4408100000 -0.4273740000 0.1691740000 0.1344620000
Si 1.3096800000 4.1170100000 11.4324000000 0.6313170000 -0.1056110000 0.3795920000
Si 4.4192400000 4.1049600000 11.4459100000 -0.5980120000 0.0897590000 -0.0184570000
Si 5.9331500000 10.3145900000 13.9648100000 0.1423060000 0.0867160000 -0.2042480000
Si 8.9875600000 10.3302500000 13.9540000000 0.5470020000 -0.2609910000 -0.1770030000
Si 2.8538500000 4.9830200000 13.9820100000 -0.0396460000 0.4730430000 -0.4456610000
Si 5.9294600000 4.9822500000 13.9766300000 0.0949120000 0.4453370000 -0.5248420000
Si 1.3327800000 2.3303400000 13.9716900000 0.0612410000 0.1186410000 -0.0927500000
Si 4.3921400000 2.3507200000 13.9801200000 0.1833660000 -0.2039980000 -0.3173830000
Si 4.4082700000 7.6604100000 13.9721900000 -0.3483150000 0.0763040000 -0.5237230000
Si 7.4759500000 7.6449600000 13.9590400000 0.0358440000 0.3686750000 0.0866140000
Si 2.8845800000 3.2124300000 16.5083500000 -0.5473430000 0.3697170000 0.1159920000
Si 5.9409000000 3.2220500000 16.5021300000 0.0006910000 0.1419740000 0.2748330000
Si 2.8766900000 8.5708300000 16.4636900000 -0.3240000000 -0.5850320000 0.0596710000
Si 5.9294300000 8.5321400000 16.4642900000 0.4977980000 0.3984620000 0.0227920000
Si 4.4113000000 5.8865500000 16.4729100000 -0.4208360000 0.2007740000 0.0455050000
Si 7.4673600000 5.8709000000 16.4812900000 0.2412080000 0.4977620000 -0.1262710000
Si 1.3377500000 0.5500700000 16.4730600000 -0.2730850000 0.3150010000 -0.3908060000
Si 4.4073600000 0.5795000000 16.4437800000 -0.0920420000 -0.8320480000 0.5029230000
Si 5.9374800000 10.3384900000 18.9297900000 0.0506470000 -0.0196430000 -0.0229460000
Si 9.0104800000 10.3385200000 18.9298200000 -0.0493220000 -0.0018620000 0.0303160000
Si 2.8608800000 5.0067800000 18.9801700000 0.0035570000 -0.0243910000 -0.0185280000
Si 5.9338700000 5.0067800000 18.9801900000 0.0039790000 -0.0226920000 0.0419430000
Si 4.4028300000 7.6644800000 18.9544800000 0.0037000000 0.0460630000 0.0189660000
Si 7.4758500000 7.6644700000 18.9544900000 -0.0190390000 0.0446100000 -0.0627510000
Si 1.3247100000 2.3123800000 19.0467700000 -0.0042480000 0.0148160000 -0.0365990000
Si 4.3977100000 2.3123800000 19.0467600000 0.0025300000 -0.0374910000 0.0114330000
C 2.8544500000 3.2185200000 8.3356300000 0.5829730000 -0.0121890000 -0.3317700000
C 5.9590700000 3.2270700000 8.3281900000 -0.5208470000 -0.1233950000 -0.2068770000
C 2.8577400000 8.5556500000 8.3188300000 0.2956760000 -0.3000540000 0.9941510000
C 5.9572800000 8.5405000000 8.3444000000 -0.2677390000 0.4160860000 -0.7029020000
C 1.3384900000 0.5587800000 8.3235000000 -0.2494730000 0.3160660000 0.8587400000
C 4.4013000000 0.5644300000 8.3294700000 0.3568670000 -0.0737670000 -0.1820690000
C 4.3984700000 5.8792700000 8.3300700000 -0.0912940000 0.1723910000 0.5649120000
C 7.4561200000 5.8855100000 8.3194900000 0.4136770000 -0.2235730000 0.5721070000
C 5.9294400000 10.3021700000 10.7920600000 0.3863590000 0.6434070000 0.2326160000
C 9.0004100000 10.3119500000 10.8295300000 0.4537100000 0.2089680000 -0.3459470000
C 2.8624800000 4.9958400000 10.8164900000 0.1399330000 -0.1712370000 -0.0743620000
C 5.9420700000 4.9933000000 10.8005400000 -0.1946040000 0.1058510000 0.2822250000
C 1.3455100000 2.3524300000 10.7966800000 -0.4850850000 -0.3276710000 0.4345020000
C 4.3937500000 2.3315600000 10.8038700000 0.4931730000 0.1425340000 0.0842970000
C 4.4091100000 7.6478300000 10.8313100000 -0.0356340000 0.0259600000 -0.4057160000
C 7.4889400000 7.6572600000 10.8199200000 -0.1941630000 -0.2922910000 -0.0979860000
C 2.8771700000 1.4450600000 13.3307900000 -0.1938510000 0.1445090000 0.2022750000
C 5.9398900000 1.4593200000 13.3403300000 -0.1982450000 0.1032980000 0.1075760000
C 2.8507600000 6.7597300000 13.3342000000 0.4433140000 0.0394380000 0.3114930000
C 5.9387800000 6.7875000000 13.3211000000 -0.0701540000 -0.6589870000 0.6200070000
C 4.4081800000 9.4446000000 13.3499600000 -0.3778350000 -0.1792920000 -0.3450580000
C 7.4720900000 9.4346200000 13.3329500000 -0.1010750000 -0.2091110000 -0.0131880000
C 1.3317100000 4.1093400000 13.3417400000 -0.3897400000 -0.1469150000 -0.1376900000
C 4.3774300000 4.1171400000 13.3386500000 0.4987560000 -0.1500750000 0.0955220000
C 2.8617600000 5.0146100000 15.8445500000 0.2145990000 -0.6048800000 0.4126580000
C 5.9329600000 5.0140600000 15.8429800000 0.0257620000 -0.5309030000 0.2480820000
C 5.9328000000 10.3165300000 15.8358700000 0.2763710000 -0.0008250000 0.0439570000
C 9.0133800000 10.3050800000 15.8221400000 -0.0435520000 0.6474790000 0.1742970000
C 1.3217200000 2.3438700000 15.8582700000 0.3351420000 -0.1368080000 -0.0334940000
C 4.4049800000 2.3268600000 15.8646500000 0.0916420000 0.6028570000 -0.3642840000
C 4.4044900000 7.6704800000 15.8447000000 -0.0832900000 -0.3400070000 0.0932710000
C 7.4859800000 7.6613200000 15.8536900000 -0.1785420000 -0.1836050000 -0.1161170000
C 1.3278400000 0.5612100000 18.3260600000 -0.0069920000 -0.0367800000 0.1926600000
C 4.4008500000 0.5612000000 18.3260500000 0.0276510000 0.0559340000 -0.1338810000
C 4.3982600000 5.8884400000 18.3673500000 0.0271470000 -0.0160350000 -0.0290700000
C 7.4712700000 5.8884400000 18.3673600000 -0.0348080000 -0.0814370000 0.0828650000
C 2.8659200000 8.5464900000 18.3593700000 0.0654300000 0.0606520000 0.0399890000
C 5.9389400000 8.5464600000 18.3593500000 -0.0480860000 -0.0476130000 0.0646520000
C 2.8612900000 3.2286900000 18.4157000000 0.0623250000 -0.0061150000 -0.0449640000
C 5.9342900000 3.2287000000 18.4157000000 0.0099690000 0.0360000000 -0.1133680000
H 1.3371400000 0.5616700000 7.2462900000 -0.0548780000 0.0261580000 -0.9162350000
H 5.9498900000 3.2249200000 7.2127600000 0.0286130000 0.0111840000 0.2971330000
H 7.4646200000 5.8818000000 7.2256100000 -0.0229580000 0.0182470000 -0.3332560000
H 2.8619600000 8.5454800000 7.2392100000 -0.0169120000 0.0207930000 -0.8142390000
H 2.8749400000 3.2077800000 7.2243700000 -0.0606410000 0.0385110000 0.1648460000
H 5.9330500000 8.5402000000 7.2192000000 0.0929830000 -0.0539750000 0.5171630000
H 4.4001600000 0.5500800000 7.2223000000 0.0426350000 0.0420360000 0.0417100000
H 4.3989000000 5.8495800000 7.2446800000 0.0152920000 0.0501800000 -0.6275890000
168
lattice="6.1459999080 0.0000000000 0.0000000000 3.0730000890 10.6451859210 0.0000000000 0.0000000000 0.0000000000 41.7204780580" Properties=species:S:1:pos:R:3:force:R:3 energy=-1138.9859813600 virial="25.6014454975 -0.0058265408 1.1292926430 -0.0058265408 12.0638868134 -1.4992609476 1.1292926430 -1.4992609476 -1.9819779277"
Ga 2.8774500000 7.0397800000 24.6397200000 -0.0008720000 0.0001760000 -0.0028050000
Ga 5.9504400000 7.0398300000 24.6397100000 0.0003100000 0.0008600000 -0.0031470000
Ga 2.8229400000 1.2033300000 25.8321700000 0.0002820000 0.0009230000 0.0020540000
Ga 5.8959400000 1.2033400000 25.8321800000 -0.0001000000 0.0006370000 0.0019760000
Ga 2.8560900000 8.7274600000 21.8131600000 -0.0024330000 -0.0026770000 -0.0037720000
Ga 5.9290700000 8.7274600000 21.8131600000 0.0046290000 -0.0055620000 -0.0001420000
Ga 5.8951000000 3.2628100000 23.2906400000 -0.0028670000 0.0019410000 -0.0008460000
Ga 2.8221000000 3.2627800000 23.2906200000 -0.0016760000 0.0020820000 -0.0006480000
Ga 4.3708600000 9.1176500000 26.5653600000 -0.0001530000 -0.0001500000 -0.0001820000
Ga 7.4438500000 9.1176100000 26.5653400000 0.0000680000 0.0001010000 -0.0000750000
Ga 5.8626800000 4.3244900000 26.4632300000 0.0007490000 -0.0027590000 0.0043640000
Ga 2.7896600000 4.3244600000 26.4632700000 0.0008530000 -0.0027770000 0.0043630000
Ga 4.3956200000 5.8540900000 21.7456100000 0.0024120000 -0.0066930000 -0.0028120000
Ga 7.4686400000 5.8540800000 21.7456200000 -0.0025860000 -0.0018840000 -0.0098230000