168
lattice="6.1459999080 0.0000000000 0.0000000000 3.0730000890 10.6451859210 0.0000000000 0.0000000000 0.0000000000 41.7204780580" Properties=species:S:1:pos:R:3:force:R:3 energy=-673.2781416800 virial="250.5448664583 2.3836514733 -9.2937073933 2.3836514733 276.4682198171 24.2536746110 -9.2937073933 24.2536746110 349.7041237624"
Ga 5.8478900000 10.5301000000 8.5801800000 2.4020590000 -1.9970780000 5.5288280000
Ga 8.9730700000 10.1450000000 8.6531100000 0.9641650000 0.9524950000 -1.2307020000
Ga 3.0285200000 5.0031400000 8.4706300000 -1.2091730000 -4.7642120000 1.1592140000
Ga 6.0270500000 5.1086100000 8.6355700000 -2.6389100000 -1.4365220000 4.6187320000
Ga 1.1310900000 2.3905900000 8.6044000000 2.5974940000 2.1031920000 4.3932230000
Ga 4.6457400000 2.1480700000 8.4309000000 -2.0191530000 0.0585750000 2.2458860000
Ga 4.6223000000 7.8291900000 8.6563000000 -0.9675680000 1.4025970000 2.3793860000
Ga 7.6960300000 7.7868100000 8.4978200000 -1.9950160000 -1.2159950000 4.0508380000
Ga 2.9184800000 1.4098500000 11.0902000000 1.1382530000 0.9134600000 -0.4966810000
Ga 5.8431300000 1.4539700000 11.2229000000 -0.8588730000 2.4918160000 0.9861190000
Ga 2.9070100000 6.7519200000 11.2781000000 0.0538230000 1.7168620000 -0.8610660000
Ga 5.9977500000 6.7760300000 11.4505000000 -0.4106150000 3.1337830000 -0.4038360000
Ga 4.3589100000 9.5022100000 11.0785000000 -0.9649870000 -0.5541030000 1.6506210000
Ga 7.6054500000 9.7161600000 11.1677000000 0.0925220000 -1.0350900000 -0.0056940000
Ga 1.4184100000 4.1355600000 10.9192000000 -2.1663970000 1.6884740000 0.7984730000
Ga 4.3014500000 4.1302500000 11.2292000000 0.5440710000 1.0522560000 -0.7121940000
Ga 6.0219900000 10.5754000000 13.8714000000 -0.0438650000 0.3665060000 0.1815710000
Ga 3.0268800000 10.4005000000 13.8194000000 0.0625140000 1.1694550000 -1.5854900000
Ga 2.9627500000 5.0049800000 13.8446000000 -0.4759160000 0.3170090000 -4.2990810000
Ga 6.1133100000 5.1471000000 13.5177000000 -3.7698480000 0.2881360000 1.6014830000
Ga 1.4085500000 2.6920800000 13.6646000000 -0.0376760000 -6.3995680000 2.4934610000
Ga 4.3967700000 2.4868200000 13.9420000000 -0.8177130000 -2.6081910000 -0.2463620000
Ga 4.2659400000 7.7771300000 13.7320000000 0.9389970000 0.6311950000 0.7429160000
Ga 7.5643300000 8.0073300000 13.8111000000 0.9638850000 -0.1347610000 0.4114550000
Ga 3.0336900000 3.5159500000 16.4326000000 -0.6503460000 -1.7900930000 -2.9311320000
Ga 6.1093400000 3.4964900000 16.2398000000 4.2763550000 2.4287450000 1.2616540000
Ga 2.8158000000 8.8160600000 16.2563000000 0.0207630000 -0.8791060000 1.7032320000
Ga 5.7946600000 8.6513000000 16.4373000000 0.4337220000 1.2123800000 0.2179740000
Ga 4.6611000000 6.0261500000 16.1750000000 -3.5548610000 0.7058190000 1.8167860000
Ga 7.5959000000 6.0232000000 16.3681000000 1.3284740000 1.3742980000 1.1652320000
Ga 1.4337700000 0.8306600000 16.3240000000 -0.3659510000 -0.8544580000 -2.1274840000
Ga 4.4883600000 0.9131000000 16.2066000000 0.4281760000 -0.2278270000 0.1332370000
Ga 5.8868900000 10.6337000000 18.7641000000 1.9892550000 -0.2608610000 3.6739140000
Ga 8.9863800000 10.4921000000 18.7553000000 0.3749250000 1.4185170000 3.6343850000
Ga 2.9686500000 5.2452600000 18.6593000000 0.2389980000 4.7071970000 4.0861970000
Ga 5.9312000000 5.0983800000 18.9717000000 0.8802910000 0.1469120000 2.2864630000
Ga 4.4801500000 7.8848600000 19.0831000000 1.8810070000 -1.7807200000 2.2536920000
Ga 7.6961900000 7.9641100000 18.9332000000 -0.5996330000 -0.6803960000 2.8313760000
Ga 1.5580600000 2.6362600000 18.8866000000 -2.4163230000 -1.3462470000 3.1280520000
Ga 4.3744300000 2.6509100000 18.8427000000 0.6217630000 -0.8167820000 3.7950440000
O 2.8490100000 3.2010900000 7.3749100000 1.9934310000 -1.4922510000 2.2560950000
O 5.9808600000 3.2394400000 7.8334400000 -11.7093940000 -1.3121750000 5.2509010000
O 2.9608400000 8.4704700000 7.7128900000 -6.5787130000 2.2261280000 8.4762820000
O 6.0394700000 8.7181900000 8.0509300000 6.6445850000 0.1656790000 7.6309130000
O 1.5106100000 0.8192400000 7.8816500000 -7.2105230000 -2.0111530000 6.1670020000
O 4.3562300000 0.4169000000 7.6065300000 1.2436350000 3.7818170000 5.1692830000
O 4.4815300000 6.1487900000 8.0423500000 10.7710190000 7.6044390000 18.8770790000
O 7.5050400000 5.9319600000 8.0058600000 1.4865410000 17.2339950000 7.3373410000
O 5.9460000000 10.2630000000 10.5375000000 -0.5303820000 -1.0897480000 0.8653570000
O 9.0632300000 10.5466000000 10.3278000000 1.3402780000 -0.4957730000 2.7384000000
O 2.8119500000 5.1237300000 10.3854000000 1.3251560000 1.0800420000 -0.4036130000
O 5.8707200000 5.2025200000 10.6939000000 0.0053620000 -2.8854080000 -0.5693450000
O 1.4063500000 2.4434000000 10.4553000000 -0.1897800000 -3.1363960000 1.4607520000
O 4.3174600000 2.5640800000 10.2850000000 0.0591860000 0.3472330000 0.8548040000
O 4.4065800000 7.7444500000 10.3957000000 0.4695060000 -1.4978790000 2.4510580000
O 7.4881300000 7.8401900000 10.7006000000 -0.2625890000 -0.3913950000 1.0699120000
O 2.9118400000 1.6209400000 12.9625000000 -1.0027660000 0.4112280000 -0.8389040000
O 5.9102600000 1.7083300000 13.1710000000 1.5514220000 -0.0949060000 0.6509880000
O 2.9103700000 6.7619300000 13.1538000000 -1.8895710000 -1.6558470000 0.2262080000
O 5.9905000000 6.9891100000 13.3723000000 0.3756040000 2.2621230000 1.0402980000
O 4.5506000000 9.5046000000 13.1787000000 1.7684100000 0.7661640000 -0.8813890000
O 7.5662800000 9.7562200000 13.0442000000 -1.2543190000 0.4478320000 -0.6028990000
O 1.3536300000 4.2320900000 13.0249000000 2.6689780000 3.0661490000 -3.7129080000
O 4.3447000000 4.0941000000 13.1174000000 1.4627790000 0.5397690000 -0.5988360000
O 2.9145900000 5.0764500000 15.5219000000 0.2222980000 1.5366300000 2.4241540000
O 6.1252000000 5.3652300000 15.5301000000 1.6051750000 -1.1154340000 -2.4301570000
O 6.0616800000 10.5957000000 15.8239000000 -0.8090720000 -2.0895360000 0.7623740000
O 9.1052400000 10.5233000000 15.6515000000 0.4877010000 1.7704830000 0.8876880000
O 1.5294800000 2.5023400000 15.6395000000 0.0969840000 0.7873420000 -0.3940730000
O 4.6592500000 2.7480300000 15.7797000000 -2.2675720000 -0.0725290000 0.3313440000
O 4.2750300000 7.8329200000 15.6672000000 0.1129770000 -0.9477920000 -0.9933280000
O 7.4172300000 7.9605800000 15.7385000000 -1.3174210000 -1.5000270000 0.3731010000
O 1.3217200000 0.8056300000 18.0816000000 -1.9643140000 0.7743420000 1.1622490000
O 4.5495600000 0.8883200000 18.1785000000 -0.7785470000 0.2410880000 -1.6425460000
O 4.5866700000 6.1143200000 18.1259000000 0.2388520000 1.2573140000 -0.2997560000
O 7.4757900000 6.1225900000 18.2847000000 -1.3661660000 0.3255780000 0.1432080000
O 3.1822400000 8.8003500000 18.3120000000 -0.3738680000 -1.0851260000 -2.8390680000
O 6.0436400000 8.7369900000 18.3427000000 -0.2403560000 -0.1463010000 -0.1609540000
O 2.8860500000 3.6092700000 18.1678000000 0.5167040000 -1.5867220000 -0.0444070000
O 5.9705200000 3.3638300000 18.1670000000 0.8515030000 -0.6416250000 -0.4597670000
Si 3.3389200000 7.1326100000 24.6360000000 -0.1882070000 -0.1158080000 -0.4870650000
Si 6.3375700000 7.0029800000 24.6331000000 -0.2655710000 0.0647090000 -0.6148760000
Si 2.6247000000 1.1823500000 26.3008000000 0.0069700000 0.2090970000 0.2446320000
Si 5.6970200000 1.0786300000 26.0483000000 -0.3157820000 0.2452420000 0.3601520000
Si 2.9762000000 9.0457900000 22.0456000000 0.1884930000 -0.0503740000 0.5597790000
Si 6.0480900000 8.9205500000 21.8915000000 -0.0188170000 0.0935810000 0.4573990000
Si 6.0024700000 3.4596000000 23.5918000000 -0.0002540000 -0.3943530000 -0.0394060000
Si 2.7333900000 3.6391600000 23.4784000000 -0.0592270000 0.0415500000 0.1204940000
Si 4.4107600000 8.8791800000 26.9258000000 -0.0127090000 0.1488500000 0.0144720000
Si 7.3833300000 9.0423200000 26.7942000000 -0.0936970000 -0.1781680000 -0.1088380000
Si 5.3293100000 4.2400600000 26.4296000000 -0.1238910000 -0.2218800000 -0.0610180000
Si 2.3354300000 4.2654200000 26.2678000000 0.2275730000 0.0103030000 -0.2083930000
Si 4.3959100000 5.9258200000 21.7449000000 -0.1669190000 0.1658070000 1.1423510000
Si 7.5173100000 6.0241100000 21.7082000000 0.0978240000 0.1812860000 0.8483690000
Si 1.4786200000 1.0385000000 21.8744000000 -0.0622010000 -0.0622800000 0.4521070000
Si 4.4628000000 1.0870700000 21.8580000000 -0.1097340000 -0.1186590000 0.4608330000
Si 5.4017500000 8.2346300000 32.6436000000 0.0946750000 0.5917510000 -0.2948760000
Si 8.4494700000 8.1619500000 32.3536000000 0.0607610000 -0.1340110000 0.2438140000
Si 4.0770700000 2.2798600000 31.8475000000 -0.1857230000 -0.1805640000 -0.0067850000
Si 1.0266600000 2.1941400000 31.5890000000 -0.0044280000 -0.3785570000 0.1102170000
Si 8.6697900000 10.2319000000 29.6556000000 0.1832430000 -0.3017720000 -0.0690470000
Si 5.5915300000 10.2411000000 29.7303000000 0.0264160000 -0.1870850000 -0.0566480000
Si 4.9073000000 5.1024800000 31.3574000000 -0.2874540000 0.2382710000 0.2797730000
Si 1.8005800000 5.0543100000 31.2279000000 0.0652890000 -0.0783220000 0.1261640000
Si 0.3027100000 0.3624500000 33.7623000000 0.3458600000 -0.1704080000 -0.6843260000
Si 3.1664900000 0.2428800000 33.9834000000 -0.2776960000 -0.1919350000 -1.0118410000
Si 3.4791200000 5.6704900000 33.8325000000 -0.4601530000 0.1919970000 -1.0360880000
Si 7.0524100000 4.6531500000 33.9503000000 0.0239230000 -0.0540710000 -1.0275440000
Si 6.0140000000 7.3839100000 29.2840000000 0.0026230000 -0.1868780000 -0.1134230000
Si 2.7746500000 7.0970800000 29.1304000000 -0.0703980000 -0.0379730000 0.0606530000
Si 3.9759600000 2.6032600000 28.8267000000 0.2398400000 0.0955930000 -0.0465910000
Si 0.8099900000 2.5542500000 28.7271000000 0.0179810000 0.0453010000 -0.0491800000
C 1.9518500000 1.0770000000 6.8839200000 4.0243700000 1.6443650000 -16.1537870000
C 6.6247600000 3.4371000000 6.9000000000 8.1778750000 4.0483110000 -12.4094390000
C 7.4512400000 5.0198300000 7.3199000000 -0.2658100000 -14.7153810000 -11.9537400000
C 3.5673600000 8.2884800000 6.8057600000 10.1685150000 -3.3413060000 -17.3385970000
C 3.0826200000 3.1709300000 6.2485100000 0.8583130000 -0.4232870000 -5.1325000000
C 5.5108000000 8.7978800000 6.9838800000 -5.3181740000 1.0008150000 -12.3597170000
C 7.3004800000 10.4240500000 6.6948900000 -1.4935890000 -6.4132150000 -12.9623810000
C 4.0497300000 5.9183600000 7.0887100000 -9.9287840000 -4.4596690000 -24.4499740000
H 5.7804300000 5.3222700000 20.5974000000 -0.1038850000 -0.0139080000 0.1778020000
H 2.8276500000 5.5195100000 20.3869000000 0.1589910000 -0.2637240000 -0.5050440000
H 6.1723300000 10.5372000000 20.5924000000 0.0900540000 0.0107410000 -0.1928030000
H 9.0933700000 10.2942000000 20.4265000000 -0.0833850000 0.2101250000 -0.3227540000
H 2.8701200000 9.5651700000 27.9349000000 0.0486880000 0.2440040000 0.1856630000
H 5.8317200000 9.4787500000 28.0715000000 -0.0290260000 0.2531010000 0.0331730000
H 3.7014600000 4.0049000000 27.4584000000 -0.0360480000 -0.3975370000 0.3567930000
H 6.9247100000 3.9864300000 27.4310000000 -0.0958740000 -0.3983410000 0.2869930000
H 4.7845700000 8.0810500000 25.3975000000 0.0416020000 -0.1060070000 0.1046750000
H 7.8866700000 7.8582400000 25.3246000000 0.1932100000 -0.1400760000 0.0260010000
H 5.3600000000 2.7258500000 25.2786000000 0.0479030000 0.1742840000 0.3871010000
H 2.4841700000 2.6585400000 25.1384000000 -0.0297260000 -0.1287270000 0.3408880000
H 3.0271500000 7.2042100000 22.8204000000 0.0999320000 0.2177850000 0.1579770000
H 6.0192700000 7.1017300000 22.7892000000 0.0278790000 0.0248210000 0.0832500000
H 3.0281000000 1.9805700000 22.5767000000 0.0397120000 0.1214030000 0.0430840000
H 6.1804300000 1.7105900000 22.9479000000 0.1604130000 0.4549970000 -0.1643200000
H 7.5774300000 9.8764700000 22.5682000000 -0.0939130000 -0.2041170000 0.0108630000
H 4.6019100000 9.7212500000 22.7206000000 0.0537130000 -0.1947100000 -0.0258910000
H 4.4690200000 4.4743700000 22.8579000000 0.1156430000 0.1562550000 -0.3240920000
H 7.3736100000 4.3053800000 22.6667000000 -0.0492560000 0.1488650000 -0.3031880000
H 5.9643500000 5.3638500000 25.1591000000 0.1587170000 0.4404100000 -0.1110250000
H 2.8607900000 5.3619600000 24.8400000000 0.0790810000 0.2603500000 -0.0831440000
H 4.1276800000 0.0145700000 25.8452000000 0.0249430000 -0.1280460000 0.1206070000
H 1.1251400000 0.1054700000 26.0959000000 0.1787140000 -0.1556040000 0.0702840000
H 4.4199500000 7.3804600000 28.1323000000 0.1257930000 0.2672500000 -0.0844860000
H 7.3955900000 7.4205000000 28.0573000000 -0.0464220000 0.0838690000 -0.1210600000
H 2.4545800000 1.7992800000 28.1029000000 -0.0951120000 -0.2544930000 -0.2134390000
H 5.4387300000 1.7934500000 27.9836000000 -0.1764760000 -0.2562240000 -0.3130950000
H 4.4962300000 7.7450100000 20.6414000000 0.1591750000 -0.2449990000 0.4754510000
H 7.3941800000 7.7505200000 20.6972000000 0.0319280000 -0.1036100000 -0.2866070000
H 4.4939200000 2.3915900000 20.5365000000 0.0158040000 -0.0765020000 -0.0651350000
H 1.7390600000 2.3315400000 20.5062000000 -0.3914130000 -0.2356070000 0.3967930000
H 3.6477400000 9.0803400000 33.2688000000 -0.2393190000 0.3540680000 -0.2115460000
H 6.9654100000 9.1596800000 33.2070000000 -0.0244060000 0.3396950000 -0.0351850000
H 3.5087900000 4.1488800000 32.3937000000 0.2759330000 -0.2156100000 0.0059540000
H 6.5092400000 4.0889600000 32.2954000000 0.1010350000 0.1537830000 0.2154040000
H 5.4711400000 8.6045600000 30.7041000000 0.0009870000 0.0969160000 0.6234130000
H 2.4475700000 8.4041700000 30.5737000000 0.1366470000 0.1288170000 0.0173240000
H 4.6475400000 3.1943700000 30.3108000000 0.0547660000 0.2273560000 -0.1715560000
H 1.6879000000 3.3136700000 30.2335000000 0.0580380000 0.6592350000 0.0703230000
H 0.9823400000 0.6441100000 30.0844000000 -0.2123470000 0.1992120000 0.0733880000
H 4.1118500000 0.4690300000 30.1692000000 -0.0397110000 -0.0631010000 -0.0076990000
H 6.4781400000 5.9412800000 30.3354000000 0.0722230000 -0.0713090000 -0.0305880000
H 3.3259000000 5.6459900000 30.0695000000 0.0685360000 0.1389080000 0.1192000000
H 4.8994500000 6.5734500000 32.5303000000 0.1439940000 -0.4315480000 -0.2875650000
H 7.8506400000 6.4227500000 32.7977000000 -0.0169350000 -0.1068410000 0.1378730000
H 2.5308700000 1.6258300000 32.4656000000 0.0175720000 -0.3191100000 0.2122050000
H 5.6254200000 1.3045000000 32.2971000000 0.0588850000 -0.3523960000 0.2580490000
168
lattice="6.1459999080 0.0000000000 0.0000000000 3.0730000890 10.6451859210 0.0000000000 0.0000000000 0.0000000000 41.7204780580" Properties=species:S:1:pos:R:3:force:R:3 energy=-667.8928781400 virial="252.2934420203 0.3272914486 -1.7850510705 0.3272914486 276.2460957263 -30.1061963378 -1.7850510705 -30.1061963378 392.6160175563"
Ga 6.1556200000 10.5602000000 8.7554100000 -0.0308820000 0.0600500000 4.1905120000
Ga 9.0559900000 10.2095000000 8.3552900000 -1.6454070000 0.1987660000 3.6906310000
Ga 3.1002100000 5.1734300000 8.6012400000 3.4148610000 4.1869630000 4.5467010000
Ga 5.9035900000 5.2643800000 8.4733600000 1.6744230000 -0.6113190000 3.7246220000
Ga 1.5663400000 2.4564500000 8.4928800000 -2.6044030000 -3.7535100000 1.6477740000
Ga 4.3912000000 2.3459400000 8.2742700000 -3.6170860000 3.2471120000 1.6371410000
Ga 4.3399400000 7.6770900000 8.6831300000 1.6124540000 -1.5944250000 6.0219300000
Ga 7.4969200000 7.6184200000 8.4485400000 -0.2547990000 -1.7617790000 2.1154120000
Ga 2.6837600000 1.8383900000 11.0502000000 3.0365490000 -1.0960520000 0.2001850000
Ga 5.7340000000 1.7244000000 11.2782000000 1.6031080000 -1.0277520000 -0.5315360000
Ga 2.9388500000 6.6944800000 11.2881000000 0.3461970000 0.5682940000 -1.3297050000
Ga 5.9649500000 7.1179100000 11.0186000000 -0.3929510000 -1.3247800000 1.2609880000
Ga 4.3306700000 9.7037800000 11.1139000000 -0.6999930000 1.0376320000 0.6572170000
Ga 7.4843600000 9.3665700000 11.2395000000 -0.9576110000 -0.4250370000 -2.6985740000
Ga 7.2608800000 4.2134800000 11.1073000000 2.0098410000 -0.9359970000 2.7876990000
Ga 4.4600900000 4.1492300000 11.0677000000 0.8306980000 0.1861950000 -0.1617970000
Ga 5.8820500000 10.4990000000 13.6948000000 3.4527000000 2.3100690000 1.6888230000
Ga 9.0344800000 10.5240000000 13.4774000000 -0.1400680000 -0.2788480000 1.3452920000
Ga 2.9518000000 5.0746300000 13.7143000000 -0.9946570000 1.3477140000 -0.6166920000
Ga 5.9949000000 5.3907800000 13.6959000000 -0.5106530000 -4.7507170000 -0.3433540000
Ga 1.4328500000 2.3336900000 13.7627000000 1.1648740000 0.9955450000 -2.3754520000
Ga 4.4455900000 2.4928400000 13.6398000000 -0.9207130000 -0.0549660000 2.4165820000
Ga 4.5258900000 7.9906500000 13.9764000000 -1.5377350000 -1.7935140000 -0.3748440000
Ga 7.6044000000 7.7876600000 13.7029000000 -1.0043660000 0.8089380000 0.7859730000
Ga 3.0222900000 3.3591500000 16.5397000000 -1.4523530000 -0.7956960000 -0.5438400000
Ga 6.2346000000 3.5134100000 16.2617000000 0.3842970000 0.0909150000 -2.8205760000
Ga 2.8072900000 8.8441900000 16.2966000000 -1.2511740000 -1.7137540000 1.7358790000
Ga 6.1579600000 8.6806100000 16.5186000000 1.4505740000 0.7599630000 0.7780880000
Ga 4.4702300000 6.1883100000 16.2965000000 -1.4234890000 -0.7413280000 -0.5023340000
Ga 7.5932000000 6.0626100000 16.3045000000 2.0580940000 -3.0359520000 0.7711920000
Ga 1.4386600000 0.6364400000 16.2346000000 0.8296100000 1.7403660000 1.3084470000
Ga 4.4721500000 0.7260400000 16.3221000000 -0.4284350000 -0.8045250000 -2.3125520000
Ga 5.9815600000 10.5589000000 18.9744000000 -1.0753380000 0.1039950000 2.7528100000
Ga 8.9373900000 10.4800000000 18.9321000000 -0.6670020000 -1.8431170000 2.3485020000
Ga 2.7880400000 5.3493100000 19.0335000000 1.1901800000 -1.3747990000 1.8942020000
Ga 5.8907400000 5.1603900000 18.7520000000 1.9020940000 -2.7209120000 3.3351190000
Ga 4.4813400000 7.8073500000 18.9728000000 -3.4965350000 -1.5349110000 4.1353120000
Ga 7.3321000000 7.7195900000 18.9164000000 3.0334870000 1.9589020000 4.0340120000
Ga 1.3685700000 2.3697100000 18.8585000000 1.4500010000 1.0033810000 1.0088380000
Ga 4.7001000000 2.4424100000 18.8860000000 -1.8487920000 0.3747260000 2.6601970000
O 2.7172900000 3.5680800000 7.9447500000 14.1033320000 -6.9591080000 24.4744780000
O 5.9369000000 3.2714800000 7.8457300000 8.3759410000 -8.4767360000 18.3226090000
O 3.0581900000 8.4162700000 7.6991200000 -2.4760020000 -8.3928970000 17.6923730000
O 5.9920700000 8.7560200000 8.0200000000 -6.0764020000 -1.4630030000 19.0822680000
O 1.4098800000 0.5466500000 8.0098600000 -4.6012070000 -1.4686730000 15.6971860000
O 4.4513500000 0.6353800000 7.8464600000 -5.8066840000 -8.4814620000 9.1484690000
O 4.5894400000 6.0770000000 7.6400100000 -9.6572070000 -1.6894320000 0.0100450000
O 7.6774100000 5.8692800000 7.6398300000 3.0185060000 16.4957540000 12.2276000000
O 5.8847900000 10.5768000000 10.6647000000 0.5278890000 0.7583100000 1.6609430000
O 8.8724700000 10.4177000000 10.4416000000 -0.5282580000 1.3064780000 0.1109360000
O 2.8374300000 5.0025500000 10.4776000000 -1.5186870000 -1.4643320000 1.3798500000
O 6.0487300000 5.2111600000 10.3586000000 -1.8174390000 1.8111060000 0.2944220000
O 1.2344200000 2.4914200000 10.3329000000 -3.0234380000 0.4214170000 -0.9825380000
O 4.4352600000 2.3875200000 10.1853000000 -1.2283350000 0.0175610000 -1.8413490000
O 4.3643100000 7.9499000000 10.6574000000 -1.8186840000 -0.0596250000 1.3655520000
O 7.5922400000 7.4883200000 10.3446000000 2.7994010000 -0.1067980000 0.3040920000
O 2.9945500000 1.6336100000 12.8944000000 -0.0499780000 -0.3684310000 -0.2123960000
O 5.9826600000 1.6847400000 13.2236000000 0.2894700000 0.4013480000 0.9660120000
O 2.9420600000 7.0096700000 13.1226000000 2.0890620000 -0.7674200000 0.3312730000
O 5.9512900000 7.0195500000 13.2165000000 -0.0833560000 3.8603840000 -1.5857890000
O 4.4794200000 9.6372200000 13.1916000000 -1.1483160000 -1.9784260000 -2.0364360000
O 7.5166300000 9.5631000000 13.0597000000 -1.3724570000 0.5052250000 2.0225690000
O 1.3336900000 4.2178000000 13.1557000000 -0.0102990000 -0.6950870000 0.2749220000
O 4.3816000000 4.1900300000 13.0263000000 1.1296710000 1.1595320000 0.4411630000
O 3.0442300000 4.9739800000 15.5254000000 0.1552430000 -0.0578670000 0.5601540000
O 6.0307000000 5.2955000000 15.5690000000 -0.7776240000 -0.0043950000 -0.2419890000
O 5.9609100000 10.3331000000 15.6557000000 0.4602540000 -0.3224850000 -0.4526910000
O 3.0487900000 10.4699000000 15.5577000000 -0.4630980000 1.7995970000 -2.2224230000
O 1.4454600000 2.3875800000 15.4976000000 -0.2001950000 0.2728940000 1.8209910000
O 4.5518400000 2.5331500000 15.6804000000 1.1944120000 0.9633330000 -0.8533030000
O 4.5518400000 8.0392600000 15.8384000000 -0.2733190000 1.0057460000 1.2132210000
O 7.4876400000 7.6798800000 15.6158000000 -0.0912980000 1.0262860000 -2.6343650000
O 1.1819200000 0.5650300000 18.1784000000 1.0859030000 -0.3880490000 -1.6513160000
O 4.3699800000 0.6835300000 18.1233000000 0.5021420000 0.9055870000 0.3650470000
O 4.5034300000 6.0628000000 18.2172000000 -2.3229340000 1.2290230000 -1.2998440000
O 7.4406000000 6.1006100000 18.2080000000 -0.6300200000 -1.2447470000 -1.6246240000
O 2.9145700000 8.5568000000 18.3111000000 -0.1569640000 0.5645980000 -0.3899010000
O 5.8796300000 8.6653800000 18.4523000000 0.4164970000 2.7561320000 -1.5619100000
O 3.0817600000 3.5198000000 18.3873000000 0.6699750000 0.1887870000 1.6243710000
O 6.0383400000 3.3044400000 17.9794000000 -0.0613280000 0.5873890000 1.6251360000
Si 3.1700100000 7.0148000000 24.6983000000 -0.3518310000 0.2141330000 -0.5374820000
Si 6.4961500000 6.9890500000 24.5411000000 -0.2556320000 -0.2178980000 -0.2649600000
Si 2.8070100000 1.1213300000 26.1883000000 -0.3693050000 0.3066990000 0.4368540000
Si 5.7722200000 1.0094400000 26.0767000000 -0.1167820000 0.3427630000 0.3315450000
Si 2.9429200000 9.1158300000 21.9747000000 -0.0916980000 -0.3084680000 0.6810320000
Si 6.0556400000 8.8573900000 21.6943000000 0.0817490000 0.0968150000 0.8868240000
Si 6.0325300000 3.4876600000 23.6980000000 0.1188460000 0.0007220000 -0.1558170000
Si 2.8475500000 3.6121300000 23.5212000000 -0.1781700000 0.1291800000 0.1286030000
Si 4.3402400000 8.9422300000 26.8535000000 0.0033140000 -0.2303860000 -0.1308510000
Si 7.4514300000 9.0051500000 27.1378000000 -0.0438830000 -0.3395170000 -0.1312570000
Si 5.4298500000 4.1944700000 26.4010000000 -0.0478700000 0.0944750000 -0.0866390000
Si 2.2798700000 4.2165200000 26.2611000000 0.4049890000 0.1322940000 -0.0108510000
Si 4.4123900000 5.9977700000 21.8088000000 0.0766490000 0.1225490000 1.0863270000
Si 7.5562200000 6.0002900000 21.6591000000 -0.2297630000 0.1443250000 1.1036960000
Si 1.5459500000 1.1221400000 21.8537000000 -0.0196050000 -0.3101980000 0.7393760000
Si 4.3917700000 1.1352500000 21.8483000000 0.0504980000 -0.2511960000 0.7830570000
Si 5.4360200000 8.1845700000 32.6540000000 0.0114760000 0.4759870000 -0.3015090000
Si 8.5118100000 8.2283600000 32.4275000000 0.0726570000 -0.1282240000 0.0905430000
Si 4.0027800000 2.2536200000 31.7958000000 -0.5998900000 0.3330950000 -0.1056830000
Si 0.9919600000 2.2651900000 31.5888000000 0.1875210000 -0.1933540000 0.0506970000
Si 8.6654500000 10.1867000000 29.6294000000 -0.0500830000 -0.2796260000 -0.1164410000
Si 5.4781800000 10.3684000000 29.6733000000 -0.0793950000 -0.2237600000 -0.1693590000
Si 4.9796400000 5.0228200000 31.1560000000 -0.1224250000 0.0415930000 0.5361420000
Si 1.8616600000 5.1107200000 31.2658000000 -0.3120560000 -0.1999270000 0.4379030000
Si 6.2548700000 0.4754500000 33.9377000000 0.1983710000 -0.1531010000 -1.0508610000
Si 3.0741500000 0.2279400000 34.0901000000 -0.2744430000 -0.0425910000 -1.2682600000
Si 3.4998500000 5.7866900000 33.8487000000 -0.2239920000 0.0199960000 -0.9075380000
Si 7.0610300000 4.6891200000 34.0111000000 -0.0631670000 0.0450650000 -1.2791130000
Si 6.0272400000 7.4350000000 29.3898000000 -0.0625820000 -0.3365400000 -0.1068600000
Si 2.8485200000 6.9399600000 29.1593000000 -0.2083810000 0.5896790000 -0.1843230000
Si 3.9521000000 2.5157500000 28.9000000000 0.2329970000 0.1476260000 0.3252340000
Si 0.8837700000 2.5577500000 28.6898000000 0.2783430000 0.1857320000 0.3164200000
C 1.6986500000 0.5516000000 6.9701800000 5.4559550000 -0.0846180000 -21.8543190000
C 5.6242400000 3.6733300000 6.9053900000 -6.4044370000 8.9084340000 -21.3431830000
C 1.4984900000 5.0212600000 6.9634200000 -1.1074960000 -18.8685780000 -17.4930790000
C 3.1357500000 8.7256100000 6.7018900000 2.5310900000 7.3951650000 -27.0636470000
C 2.3702200000 3.8969500000 6.9985200000 -13.2024320000 9.6320540000 -31.1337020000
C 6.1851200000 8.9167500000 6.9908800000 3.2739350000 3.6919280000 -24.6290280000
C 4.9619000000 1.0313100000 6.8985300000 7.1915020000 5.0303210000 -14.0090670000
C 5.3111700000 6.4802500000 6.8424400000 7.3006190000 4.0950590000 -10.4663700000
H 5.8770900000 5.3065700000 20.3754000000 -0.0259250000 -0.2893410000 0.0844870000
H 2.9626300000 5.5083800000 20.6778000000 0.3659980000 -0.0537260000 0.3122570000
H 2.8096200000 0.0509900000 20.6771000000 -0.1834910000 0.0600230000 0.1331470000
H 8.8501000000 10.3642000000 20.5419000000 -0.0518530000 -0.0873590000 0.4717930000
H 2.8313800000 9.6982800000 27.8885000000 0.1168790000 0.1831750000 0.2994300000
H 5.8354900000 9.6000700000 27.9427000000 0.0145680000 0.1929270000 0.1527490000
H 3.9064000000 4.2217800000 27.4785000000 -0.2937190000 -0.5112170000 0.0521300000
H 7.0057000000 3.9700200000 27.4549000000 -0.1851380000 -0.5753930000 0.5056650000
H 4.8130200000 7.6448900000 25.3508000000 0.4096440000 -0.1503050000 -0.1120410000
H 7.7793200000 7.9042400000 25.5500000000 -0.0675110000 -0.0803920000 0.1969370000
H 5.5378800000 2.6687700000 25.2920000000 -0.0683700000 0.0484060000 0.2798350000
H 2.5337000000 2.6957100000 25.3249000000 0.0518480000 -0.0575570000 0.3363720000
H 2.8849300000 7.2776100000 22.7797000000 0.0808750000 0.1931230000 0.1900140000
H 6.0538300000 6.8949000000 22.6589000000 0.0187230000 0.0867780000 0.1688070000
H 2.9296400000 1.9126100000 22.8592000000 0.0429630000 0.2413010000 -0.0776110000
H 6.0022100000 1.7468500000 22.6639000000 0.0172060000 0.2110860000 -0.0931920000
H 7.4236700000 9.8558100000 22.6332000000 0.0185570000 -0.2359290000 -0.1654510000
H 4.5176500000 9.9746400000 22.4063000000 -0.0294580000 -0.0852340000 0.0012570000
H 4.4004000000 4.3491100000 22.9318000000 0.0736150000 0.1871660000 -0.1689030000
H 1.3382500000 4.4715700000 22.7558000000 0.0482770000 0.1282440000 -0.3101430000
H 6.2771300000 5.1716300000 25.0520000000 0.0436030000 0.7656550000 -0.3611720000
H 2.6968300000 5.3268900000 24.8417000000 0.2063050000 0.1429840000 -0.0646850000
H 4.2234100000 0.0524200000 26.1444000000 0.1636140000 -0.3385590000 -0.0004530000
H 1.2036500000 0.0641900000 25.9446000000 0.1948810000 -0.1826460000 0.1326090000
H 4.4958200000 7.3106200000 28.3045000000 0.2026790000 0.1905020000 0.0871660000
H 7.4857100000 7.4124000000 28.1657000000 -0.0989400000 0.1799780000 -0.2148230000
H 2.5059300000 1.8463200000 28.0159000000 -0.2867020000 -0.3151580000 -0.4958260000
H 5.5659800000 1.7934100000 27.8258000000 -0.0104330000 -0.3650540000 -0.3839610000
H 4.6113500000 7.8532900000 20.6664000000 -0.0650280000 -0.2047860000 -0.1894850000
H 7.4487500000 7.7668700000 20.7270000000 -0.0918490000 0.0377010000 -0.5769240000
H 4.6968700000 2.3934700000 20.5136000000 -0.0909240000 -0.0546010000 0.3881960000
H 1.3600100000 2.2861300000 20.4617000000 0.0067910000 0.0295050000 0.6819440000
H 3.7388600000 9.3100300000 33.1415000000 -0.2625180000 0.4509630000 0.0647540000
H 6.9760700000 9.1125400000 33.0890000000 0.2173650000 0.1790190000 0.0138930000
H 3.4433600000 4.0575400000 32.4971000000 0.4111040000 -0.2475220000 -0.1962690000
H 6.3642500000 3.9347000000 32.3807000000 0.2152130000 0.1717000000 0.3420360000
H 5.5750300000 8.7823000000 30.7156000000 -0.1116440000 0.1022990000 0.4806330000
H 2.5222800000 8.5804100000 30.3916000000 0.0850640000 -0.1848510000 -0.0083740000
H 5.0503000000 3.0776500000 30.2289000000 0.1287630000 0.2952940000 0.1475490000
H 1.7497000000 3.2172900000 30.1807000000 -0.2064650000 0.3987220000 -0.2136510000
H 0.8976300000 0.7042400000 30.0359000000 -0.0314510000 0.1854090000 0.1685210000
H 4.0562500000 0.6933600000 29.9572000000 -0.0058030000 0.1352560000 -0.2165820000
H 6.4492200000 5.7820400000 30.2233000000 0.0319470000 -0.0116500000 0.0601680000
H 3.2971700000 5.6999000000 30.3140000000 0.4231690000 -0.3253990000 0.2478840000
H 4.6061500000 6.5460800000 32.5970000000 -0.0359660000 -0.4369400000 -0.2802440000
H 7.8230700000 6.4833900000 32.5927000000 -0.0103730000 0.0207610000 -0.1601250000
H 2.4290000000 1.2807300000 32.5771000000 0.3876740000 -0.3466410000 0.4968220000
H 5.5707800000 1.4838000000 32.4117000000 0.0672700000 -0.3387780000 0.3651750000
168
lattice="6.1459999080 0.0000000000 0.0000000000 3.0730000890 10.6451859210 0.0000000000 0.0000000000 0.0000000000 41.7204780580" Properties=species:S:1:pos:R:3:force:R:3 energy=-669.2287446000 virial="251.3523704967 -2.9775667922 -4.7277778745 -2.9775667922 273.6204213328 34.1795957551 -4.7277778745 34.1795957551 358.5731921802"
Ga 6.1947400000 10.4107000000 8.7074400000 1.0056120000 -0.8278910000 4.7340470000
Ga 9.0799800000 10.3038000000 8.5780900000 3.0192470000 0.8107130000 1.0554100000
Ga 3.0435500000 5.5059200000 8.6316500000 -1.6019750000 -1.2412370000 3.5626280000
Ga 6.0876200000 5.1727700000 8.3872100000 -3.5291500000 -0.6655670000 3.9064120000
Ga 1.2544800000 2.3291600000 8.4130800000 3.9850720000 -0.3192600000 4.4948100000
Ga 4.3845400000 2.6191700000 8.4893800000 0.0525300000 -2.0777470000 1.6676770000
Ga 4.3624800000 7.6846400000 8.6246400000 -1.1642690000 0.0533620000 1.8390480000
Ga 7.5019000000 7.5469100000 8.4292100000 -1.9594010000 0.7166540000 2.9332020000
Ga 2.8068400000 1.9299300000 11.1090000000 -2.9324650000 -2.1158310000 -0.0154320000
Ga 5.7229400000 1.5373400000 11.0716000000 1.2498150000 1.8761540000 -1.4206890000
Ga 2.8752800000 6.7256500000 11.2483000000 -0.7175230000 1.3185100000 0.2602080000
Ga 6.0134700000 7.0210500000 10.9020000000 -0.8064080000 0.9558070000 0.8927360000
Ga 4.2721400000 9.8409200000 11.0766000000 1.1074030000 -0.8856880000 0.3253490000