84
lattice="3.0899999140 0.0000000000 0.0000000000 0.0000000000 11.2700004580 0.0000000000 0.0000000000 0.0000000000 39.2999992370" Properties=species:S:1:pos:R:3:force:R:3 energy=-560.0012622700 virial="-10.4112543352 -3.7459491795 -1.4628172091 -3.7459491795 -92.1827260756 -0.1751642629 -1.4628172091 -0.1751642629 -27.4070226626"
Ga 0.8307000000 3.4026600000 21.7043000000 0.1727620000 0.8617910000 -0.6735730000
Ga 0.7401400000 9.1065700000 21.7890500000 0.0014020000 -1.0671150000 -1.6414660000
Ga 2.6092700000 2.5454200000 28.0616000000 -0.1443580000 -0.0548530000 -0.8305960000
Ga 1.6152800000 8.3600500000 27.9782700000 0.2150850000 -0.7035690000 -0.5484150000
Ga 1.3477000000 11.1180600000 26.4413800000 0.2989000000 -0.9907700000 1.4013640000
Ga 2.7261200000 5.3782200000 26.4981300000 -0.0877740000 0.2441390000 0.3335390000
Ga 1.2348100000 4.5867800000 32.9428700000 -0.0410810000 -0.2144060000 0.1925850000
Ga 2.8771500000 10.1173700000 33.1254600000 -0.0070690000 -0.2955110000 -0.3627570000
Ga 0.9570200000 2.4763400000 25.0614800000 -0.1558460000 1.4003460000 0.6870480000
Ga 3.0676700000 8.2098900000 25.1215800000 -0.6429430000 0.4558770000 0.8687110000
Ga 2.6710100000 1.8457100000 31.3049200000 -0.3211280000 0.2454390000 -0.1164050000
Ga 1.3602600000 7.6063400000 31.0625200000 -0.1124950000 0.7531160000 1.6693460000
Ga 2.5127700000 0.4960800000 23.0986200000 -0.1633780000 -0.4389320000 -0.3250190000
Ga 2.7240200000 6.1385100000 23.0438400000 -0.5859530000 -1.1293130000 -0.0248700000
Ga 1.2454900000 5.0895700000 29.5604600000 -0.1096970000 -0.1395490000 -0.2930360000
Ga 2.8210100000 10.7001500000 29.6323500000 -0.0651740000 -0.4969680000 0.2730960000
O 1.0838100000 4.9481500000 22.7965000000 0.4232590000 1.6407550000 0.7733240000
O 0.8946500000 10.5664900000 22.8783000000 0.5673290000 2.4053380000 1.1667140000
O 2.7024500000 3.8252500000 29.5448700000 0.5796000000 0.3602380000 -0.5784300000
O 1.2740400000 9.4775500000 29.5671800000 -0.1633990000 0.1071640000 0.6075610000
O 2.5855800000 3.5343300000 25.8601200000 -0.2746630000 -0.4387110000 -1.0497060000
O 1.4340400000 9.3285500000 25.7848500000 0.3165950000 -0.6524120000 -1.5908850000
O 1.1073600000 2.6691500000 32.0559300000 0.3685580000 -0.6145040000 -0.7830920000
O 2.8701600000 8.3237500000 32.1275500000 0.2347940000 -0.9458030000 -1.7929950000
O 2.7718000000 10.3360100000 27.7171200000 -0.0153860000 1.1621530000 -2.0723300000
O 1.1785200000 4.8804200000 27.6192300000 -0.1754800000 0.7827130000 -1.2319370000
O 2.5393400000 4.3601500000 20.7222700000 -0.2012050000 -0.5168020000 0.7581210000
O 2.4257000000 10.0518200000 20.7441200000 -0.1274730000 -0.8798720000 2.5503430000
O 0.8802100000 1.6825900000 26.8949700000 0.3044070000 0.2144020000 1.8711230000
O 0.1090800000 7.4917500000 26.9000200000 -0.2075080000 0.0698190000 1.9810450000
O 1.1321700000 1.8708400000 20.7281700000 -0.1791480000 -0.3882500000 0.8701750000
O 0.9802700000 7.4547800000 20.8263200000 -0.1109820000 0.4168940000 0.4381380000
O 2.9764200000 11.2387000000 31.4692300000 -0.0399290000 0.1555830000 0.0905610000
O 1.1382500000 5.6440800000 31.3299100000 -0.3119760000 0.6008640000 0.1844250000
O 0.2492700000 2.3303100000 23.2156100000 -0.0799810000 -0.4933650000 -0.0501370000
O 2.9623200000 8.0679300000 23.2439900000 0.1150670000 -0.0081710000 -1.1599820000
O 2.0326900000 0.8930700000 24.8924200000 0.3232760000 -1.0058510000 0.1983810000
O 2.2721500000 6.3449300000 24.8917400000 0.0122560000 -0.0859990000 0.5387070000
O 2.3864100000 1.2877900000 29.3905100000 -0.1829200000 -0.1077700000 0.7745330000
O 1.9300000000 7.0057300000 29.3533800000 -0.0592400000 -0.1225190000 -0.3661670000
Si 2.5720300000 10.2640500000 9.0008400000 0.3402620000 -1.4631690000 1.2441590000
Si 2.6140500000 4.5797100000 9.0152100000 -0.8298750000 -0.3995290000 1.2408710000
Si 1.0734300000 1.8140300000 9.0126700000 -0.0624360000 -1.0634370000 0.4685070000
Si 1.0584300000 7.4323800000 9.0453400000 -0.4610930000 -0.9032990000 0.4674950000
Si 2.5483700000 0.8379700000 11.5514500000 -0.0252400000 -1.4966270000 1.0374420000
Si 2.5684400000 6.4156500000 11.5038400000 -0.5849900000 -0.5538270000 1.6677240000
Si 1.0130500000 9.2606100000 11.5259400000 -0.1299440000 -1.5776890000 1.5118700000
Si 1.0145000000 3.6690200000 11.5484200000 -0.4615050000 -1.5424700000 1.2176700000
Si 2.5710100000 4.4388400000 14.0771600000 -0.3134380000 1.2484790000 1.1372830000
Si 2.5056700000 10.0059600000 14.1101100000 -0.2571530000 2.0229370000 0.8692800000
Si 0.9915400000 1.5800200000 14.0846100000 -0.5131070000 1.8184520000 1.1486520000
Si 0.9806100000 7.2351000000 14.0920200000 -0.7572160000 1.3274840000 0.7680300000
Si 2.4729200000 2.6147600000 16.6534100000 -0.1821900000 1.1128460000 -0.6814780000
Si 2.5024800000 8.2179200000 16.6429700000 -0.6514150000 1.3514190000 0.8353970000
Si 0.9275400000 11.0816000000 16.6897300000 -0.2775120000 0.5220730000 -0.2856850000
Si 0.9318800000 5.4512500000 16.5926400000 -0.2033860000 0.7850210000 1.2498080000
Si 2.5390000000 4.6235400000 19.0820800000 -0.9402220000 -2.0350360000 0.5243790000
Si 2.4271100000 10.2023500000 19.1380600000 0.8133160000 -1.1983730000 -1.0319290000
Si 0.9397900000 7.4050200000 19.1477500000 -0.3098020000 -0.5361390000 1.0300630000
Si 0.9500500000 1.8123500000 19.1052900000 0.6496000000 -1.8400210000 0.3788910000
C 2.6332000000 2.7241300000 8.4135400000 0.1600510000 0.5634590000 0.8689520000
C 2.5882600000 8.3576400000 8.4826600000 -0.2936730000 0.5876770000 -1.6304130000
C 1.0454400000 11.1439400000 8.4600000000 -0.1142700000 1.7627430000 -0.9658670000
C 1.0345800000 5.4986300000 8.5103200000 0.5308730000 1.4242340000 -1.7871480000
C 2.5318900000 4.5294700000 10.9600700000 0.7666670000 0.8732180000 -1.2180560000
C 2.5622100000 10.1021300000 10.9518500000 -0.0454090000 2.1295080000 -1.2035610000
C 1.0075200000 1.7137900000 10.9273600000 0.2608320000 1.2321300000 -0.4851730000
C 1.0059900000 7.3042300000 10.9370500000 0.3618850000 1.4220680000 -0.5016090000
C 2.5147100000 0.7174700000 13.5231900000 0.5167870000 -0.9454490000 -1.4641770000
C 2.4942500000 6.3756100000 13.4922600000 0.9684140000 -1.0468910000 -1.0504270000
C 0.9512000000 9.1744500000 13.5078200000 0.4474220000 -1.1358800000 -1.0733360000
C 1.0362100000 3.5693400000 13.4909400000 -0.4014200000 -1.0683170000 -0.8845820000
C 2.4590500000 10.1736900000 16.0321900000 0.4295360000 -0.9267460000 -0.2513240000
C 2.4612500000 4.5646100000 16.0469300000 0.6009080000 -1.2437320000 -1.1349810000
C 0.9085700000 1.7881800000 15.9991900000 0.6262130000 -1.8431890000 -0.4307990000
C 0.9317600000 7.3332000000 16.0576400000 0.5473570000 -0.8057740000 -1.4304830000
C 0.9516300000 5.4947800000 18.6009800000 0.8384750000 1.0919460000 -1.3198960000
C 0.9191200000 11.0815800000 18.6325400000 -0.6217470000 1.5533990000 -1.3290650000
C 2.4585500000 8.2851200000 18.5757700000 0.5681370000 0.6594790000 -1.3964960000
C 2.5158500000 2.5978600000 18.4985800000 -0.3863820000 1.9356910000 -0.6369290000
H 2.8819600000 2.9418200000 7.3775300000 -0.5477080000 -0.4552180000 -0.8752480000
H 2.4234700000 8.4293400000 7.3350100000 0.5601370000 -0.3321590000 1.1980970000
H 0.9680200000 5.6580500000 7.3721100000 0.2023080000 -0.5321390000 0.9349400000
H 1.0992100000 0.0611800000 7.3452700000 -0.1851490000 -0.5647700000 0.5321140000
84
lattice="3.0899999140 0.0000000000 0.0000000000 0.0000000000 11.2700004580 0.0000000000 0.0000000000 0.0000000000 39.2999992370" Properties=species:S:1:pos:R:3:force:R:3 energy=-559.7892803400 virial="-10.0170108833 -4.4592314520 0.2916443121 -4.4592314520 -93.0663036151 0.9409718964 0.2916443121 0.9409718964 -29.6329140338"
Ga 0.8251400000 3.4055600000 21.6946100000 0.0793920000 0.8069190000 -0.2714130000
Ga 0.7490600000 9.1053300000 21.7852300000 0.0184980000 -0.9774240000 -1.4243520000
Ga 2.6259000000 2.5545700000 28.0563300000 -0.1843610000 -0.1757790000 -0.7466730000
Ga 1.5923300000 8.3669800000 27.9763500000 0.2344790000 -0.7609010000 -0.5623170000
Ga 1.3378100000 11.1170800000 26.4571700000 0.3887850000 -1.1453820000 1.0852440000
Ga 2.7393900000 5.3844500000 26.5125600000 -0.1082900000 0.3002120000 0.2112820000
Ga 1.2389600000 4.5876600000 32.9473900000 -0.0310370000 -0.2096470000 0.2097840000
Ga 2.8611100000 10.1093100000 33.1235600000 -0.0143510000 -0.2986750000 -0.2931380000
Ga 0.9655200000 2.4759000000 25.0723900000 -0.0690430000 1.1929650000 0.5568910000
Ga 3.0513900000 8.2007500000 25.1083600000 -0.5439970000 0.5133700000 1.5093190000
Ga 2.6805300000 1.8542500000 31.3055900000 -0.2509050000 0.3727680000 -0.1079600000
Ga 1.3536400000 7.6025800000 31.0622800000 -0.2165480000 0.6425290000 1.5239890000
Ga 2.5225100000 0.4980400000 23.0954000000 -0.1326850000 -0.4831150000 -0.1747480000
Ga 2.7231200000 6.1377000000 23.0475100000 -0.5569560000 -1.3002460000 -0.0847270000
Ga 1.2616700000 5.0905400000 29.5647300000 -0.2117450000 -0.2282810000 -0.4193330000
Ga 2.8136900000 10.7025900000 29.6388800000 -0.1382890000 -0.5886580000 0.2896020000
O 1.0700900000 4.9247800000 22.8088900000 0.4564670000 1.7802610000 0.7672960000
O 0.9110900000 10.5704800000 22.8787700000 0.5007100000 2.2352570000 1.0053180000
O 2.6927200000 3.8106900000 29.5485000000 0.7574430000 0.4173810000 -0.5740200000
O 1.2554200000 9.4671200000 29.5843800000 -0.0779620000 0.1920340000 0.5624480000
O 2.6017100000 3.5299100000 25.8778900000 -0.3112450000 -0.4212130000 -0.9751710000
O 1.4291700000 9.3182900000 25.7923700000 0.1867360000 -0.6629730000 -1.5447650000
O 1.1260200000 2.6932900000 32.0627100000 0.2128410000 -0.8238600000 -0.8630090000
O 2.8435700000 8.3081800000 32.1214300000 0.3541550000 -0.8849200000 -1.7229520000
O 2.7594000000 10.3136300000 27.7243900000 -0.0119190000 1.1959230000 -1.9517660000
O 1.1931900000 4.8741000000 27.6210400000 -0.2367930000 0.7491230000 -1.1389990000
O 2.5306300000 4.3747400000 20.7291300000 -0.2124330000 -0.6591550000 0.8706650000
O 2.4345000000 10.0426500000 20.7490400000 -0.1568140000 -0.7925900000 2.2900980000
O 0.8924500000 1.6681800000 26.8973400000 0.2254680000 0.3286320000 1.8870190000
O 0.0912300000 7.4733300000 26.9069400000 -0.1953820000 0.1636650000 1.6826950000
O 1.1130800000 1.8828000000 20.7180500000 -0.1405060000 -0.4585810000 0.8311940000
O 0.9820600000 7.4417900000 20.8304900000 -0.0801900000 0.5451990000 0.8237930000
O 2.9461600000 11.2461300000 31.4792000000 0.0142890000 0.1371630000 0.0444020000
O 1.1218300000 5.6212000000 31.3288000000 -0.2876990000 0.8378350000 0.2200080000
O 0.2347600000 2.3204900000 23.2361900000 0.0613970000 -0.2531060000 -0.4524710000
O 2.9686900000 8.0714900000 23.2593200000 0.1349820000 -0.0376120000 -1.6627710000
O 2.0394200000 0.8829000000 24.8863600000 0.1905690000 -0.9843220000 0.4864250000
O 2.2677100000 6.3283800000 24.8804500000 0.0100150000 -0.0402570000 0.7478410000
O 2.3788800000 1.2841200000 29.3860700000 -0.1230430000 -0.0339460000 0.7154660000
O 1.9133100000 6.9977900000 29.3420400000 -0.0827590000 -0.0645020000 -0.1691070000
Si 2.5687400000 10.2571800000 9.0012500000 0.5890130000 -1.4867340000 1.5246690000
Si 2.6209000000 4.5814300000 8.9962200000 -0.8994000000 -0.3286350000 1.5040330000
Si 1.0626100000 1.8086600000 8.9985100000 0.3074980000 -0.9288630000 0.7346110000
Si 1.0584100000 7.4311300000 9.0469800000 -0.0866240000 -0.7948350000 0.7778410000
Si 2.5521800000 0.8437400000 11.5518500000 0.0583820000 -1.5702590000 0.9048580000
Si 2.5724600000 6.4135700000 11.4931700000 -0.4858390000 -0.4183050000 2.0295210000
Si 1.0151500000 9.2498300000 11.5185500000 -0.0964300000 -1.3565860000 1.5451020000
Si 1.0132900000 3.6793500000 11.5488200000 -0.5574730000 -1.6078100000 1.1429490000
Si 2.5667800000 4.4403900000 14.0672900000 -0.2050940000 1.6307450000 1.4018350000
Si 2.4971500000 10.0032800000 14.1023100000 0.0454160000 1.6903080000 0.5274890000
Si 0.9896300000 1.5788100000 14.0715700000 -0.2916030000 1.8261880000 1.1792410000
Si 0.9916300000 7.2374000000 14.0887100000 -0.9378040000 1.3445620000 0.8539610000
Si 2.4730800000 2.6208300000 16.6374600000 0.3151000000 1.1123020000 -0.4393650000
Si 2.5170200000 8.2338600000 16.6378500000 -0.7622000000 0.9357680000 0.9048980000
Si 0.9145400000 11.0869300000 16.6887200000 -0.1527800000 0.1694600000 -0.5252630000
Si 0.9297800000 5.4570500000 16.5879400000 -0.0167570000 1.0329280000 1.5268320000
Si 2.5399300000 4.6078800000 19.0932100000 -1.2205790000 -1.4359990000 0.0710200000
Si 2.4334700000 10.2131900000 19.1384700000 1.1562460000 -1.5826390000 -0.9309530000
Si 0.9509800000 7.4030900000 19.1661400000 -0.4769940000 -0.5123770000 0.3572330000
Si 0.9488200000 1.8295500000 19.0934600000 1.0311560000 -2.1657470000 0.5583860000
C 2.6419100000 2.7358500000 8.4123400000 0.2299920000 0.8269750000 -1.7211600000
C 2.6092800000 8.3591400000 8.4840700000 -0.7147160000 0.4403140000 -1.0212830000
C 1.0500000000 11.1320500000 8.4714300000 -0.2928240000 2.0171490000 -1.4693350000
C 1.0395400000 5.5087700000 8.5045300000 0.5475900000 1.2683480000 -1.3835260000
C 2.5241700000 4.5319600000 10.9537700000 0.9702310000 0.9401890000 -1.3590660000
C 2.5644100000 10.1015800000 10.9576300000 -0.0547730000 2.1231140000 -1.4223100000
C 1.0160700000 1.7262600000 10.9375400000 0.0791040000 1.1886330000 -0.8151840000
C 1.0176600000 7.3210300000 10.9636200000 0.1671350000 1.1217670000 -1.2046020000
C 2.5210000000 0.7213200000 13.5053800000 0.3298780000 -0.9350100000 -1.2198750000
C 2.4967300000 6.3822500000 13.4987600000 1.1400090000 -1.2707250000 -1.2595620000
C 0.9582600000 9.1594100000 13.4690700000 0.1379420000 -0.7221190000 -0.4338900000
C 1.0345800000 3.5904600000 13.4878900000 -0.4729440000 -1.4046580000 -0.9353990000
C 2.4374700000 10.1465600000 16.0181000000 0.6473970000 -0.3497530000 -0.0360270000
C 2.4702100000 4.5829900000 16.0537700000 0.3493830000 -1.6646280000 -1.4203560000
C 0.9347700000 1.7732900000 15.9917300000 0.0022950000 -1.6048400000 -0.4025650000
C 0.9458600000 7.3388600000 16.0608300000 0.4892900000 -0.7359260000 -1.5759090000
C 0.9331700000 5.5068000000 18.6054600000 1.2643960000 0.6484900000 -1.2638230000
C 0.9421400000 11.0825500000 18.6247600000 -1.1358230000 1.7604740000 -1.2618950000
C 2.4641200000 8.2787600000 18.5670500000 0.6699030000 0.8708830000 -1.0738680000
C 2.5295000000 2.5988700000 18.4997400000 -0.8264870000 2.1031770000 -1.0209360000
H 2.8612700000 2.9801900000 7.2607900000 -0.8649490000 -0.9721130000 1.7387040000
H 2.4106800000 8.4168600000 7.3707000000 0.5899460000 -0.2659390000 0.4761580000
H 0.9637500000 5.6656200000 7.3862100000 0.2025950000 -0.4402140000 0.4546020000
H 1.1096200000 0.0540000000 7.3446400000 -0.2190780000 -0.6231490000 0.8011240000
84
lattice="3.0899999140 0.0000000000 0.0000000000 0.0000000000 11.2700004580 0.0000000000 0.0000000000 0.0000000000 39.2999992370" Properties=species:S:1:pos:R:3:force:R:3 energy=-560.0266078300 virial="-10.0634798967 -3.8830840218 1.8039886058 -3.8830840218 -95.6951770046 1.1517396240 1.8039886058 1.1517396240 -31.4049551929"
Ga 0.8107400000 3.4167600000 21.6787200000 -0.0303470000 0.5445660000 0.3046870000
Ga 0.7698000000 9.0931800000 21.7718400000 0.2501980000 -0.0295080000 -0.5841220000
Ga 2.6659100000 2.5813100000 28.0435600000 -0.2970110000 -0.6358960000 -0.6367010000
Ga 1.5373300000 8.3831400000 27.9737400000 0.2286720000 -1.0459240000 -0.5208050000
Ga 1.3175400000 11.1060000000 26.4984800000 0.5163660000 -1.2944120000 0.1838110000
Ga 2.7709700000 5.4048000000 26.5419500000 -0.1940150000 0.2580110000 0.2348380000
Ga 1.2474800000 4.5865500000 32.9641500000 -0.0037410000 -0.0295530000 0.1636830000
Ga 2.8214300000 10.0847900000 33.1186300000 -0.0210400000 -0.3215030000 -0.1423100000
Ga 0.9874100000 2.4809200000 25.1029700000 0.1621750000 0.4039310000 0.2454810000
Ga 3.0052100000 8.1761600000 25.0889900000 -0.3644420000 0.6464490000 2.0298100000
Ga 2.7021700000 1.8751800000 31.3010300000 -0.0229900000 0.6290790000 0.0183850000
Ga 1.3350100000 7.5950700000 31.0675600000 -0.4824750000 0.3289390000 0.9147330000
Ga 2.5458700000 0.5040700000 23.0871700000 -0.0161210000 -0.7583010000 0.0943770000
Ga 2.7152800000 6.1306100000 23.0558900000 -0.4143040000 -1.4639660000 -0.2714670000
Ga 1.3011300000 5.0998100000 29.5685900000 -0.2364160000 -0.5142590000 -0.4652700000
Ga 2.7934000000 10.7119900000 29.6547100000 -0.2498560000 -0.9709110000 0.3457180000
O 1.0498300000 4.8814600000 22.8510100000 0.4314170000 1.8596200000 0.5804760000
O 0.9662600000 10.6073200000 22.8937900000 0.1411490000 1.3023560000 0.2606510000
O 2.6986100000 3.7645800000 29.5382400000 0.7981640000 0.8341680000 -0.2677250000
O 1.2054200000 9.4225600000 29.6376600000 0.0848280000 0.6585990000 0.1699150000
O 2.6256300000 3.5236600000 25.9326500000 -0.2430520000 -0.5405940000 -0.9955740000
O 1.4238800000 9.2900000000 25.7991000000 -0.1939310000 -0.8674220000 -1.4198900000
O 1.1822600000 2.7584700000 32.0808400000 -0.2074530000 -1.4176220000 -1.1160020000
O 2.7923500000 8.2684700000 32.0880500000 0.6526420000 -0.6067990000 -1.3513140000
O 2.7273700000 10.2708100000 27.7181300000 0.0667890000 1.2207620000 -1.2608930000
O 1.2207800000 4.8524900000 27.6280700000 -0.2888110000 0.7122510000 -1.0734770000
O 2.5084700000 4.4114800000 20.7392000000 -0.1918020000 -0.9395670000 1.6122140000
O 2.4525500000 10.0205700000 20.7894600000 -0.2402110000 -0.4436080000 0.4549520000
O 0.9287200000 1.6386200000 26.9163100000 0.0512260000 0.6265490000 1.7971850000
O 0.0382700000 7.4240300000 26.9321400000 -0.0537950000 0.5303610000 1.0066730000
O 1.0538100000 1.8951900000 20.6916200000 0.0085870000 -0.3699940000 1.2229970000
O 0.9837600000 7.4340200000 20.8471600000 0.0437650000 0.4165430000 1.0664250000
O 2.8706300000 11.2591000000 31.5064300000 0.1351370000 0.1682010000 -0.0706810000
O 1.0730700000 5.5954400000 31.3294200000 -0.1996390000 0.9867920000 0.1650240000
O 0.2073800000 2.2898400000 23.2754800000 0.3722470000 0.4645710000 -0.9853600000
O 2.9976400000 8.0785800000 23.2366900000 -0.0179270000 -0.3495640000 -1.3383700000
O 2.0589400000 0.8253100000 24.8740500000 -0.2187640000 -0.4033840000 1.3976030000
O 2.2634400000 6.2841800000 24.8652300000 0.0377240000 0.3249780000 0.9139110000
O 2.3589900000 1.2726500000 29.3918300000 0.0004630000 0.1966360000 0.3468070000
O 1.8637900000 6.9738900000 29.2992300000 -0.1086470000 0.1496170000 0.4578340000
Si 2.5775100000 10.2371400000 9.0103600000 0.1246650000 -1.2078080000 1.6845640000
Si 2.6166600000 4.6073000000 8.9579700000 0.1690490000 -0.8515110000 1.6689950000
Si 1.0501300000 1.8036200000 8.9591000000 0.6143950000 -0.8666410000 1.7876150000
Si 1.0632300000 7.4386300000 9.0438700000 0.4523450000 -1.3077910000 1.0205630000
Si 2.5652000000 0.8459500000 11.5502500000 0.1688680000 -1.3012500000 0.2607180000
Si 2.5733900000 6.4222300000 11.4949000000 0.3185460000 -0.6631360000 2.0319420000
Si 1.0185500000 9.2224300000 11.5126400000 -0.0067780000 -0.3355570000 1.0318230000
Si 0.9970300000 3.6897300000 11.5525500000 0.3342760000 -1.6317220000 0.5680730000
Si 2.5534500000 4.4520100000 14.0518800000 -0.0704080000 1.9752620000 1.6280020000
Si 2.4810700000 10.0008800000 14.0748900000 0.5750240000 1.4507450000 0.3969300000
Si 0.9809200000 1.5806200000 14.0463400000 0.4463510000 1.8293200000 1.2064100000
Si 0.9971500000 7.2410100000 14.0766600000 0.2736190000 1.2993330000 0.9454550000
Si 2.4874600000 2.6365700000 16.5771500000 0.7331710000 1.0534410000 0.7822670000
Si 2.5345600000 8.2686600000 16.6308400000 -0.0514930000 0.1329210000 0.8811640000
Si 0.8782000000 11.0812400000 16.6596600000 0.3815340000 0.1427930000 -0.2574920000
Si 0.9293300000 5.4714900000 16.5905700000 0.7255020000 1.2911890000 1.7479070000
Si 2.5101000000 4.5818900000 19.1224000000 -0.0852790000 -0.5881410000 -1.2551110000
Si 2.4789300000 10.2366400000 19.1273500000 0.0779460000 -1.9667890000 0.2309260000
Si 0.9675900000 7.4123000000 19.2084200000 -0.0029390000 -1.0050000000 -0.8389940000
Si 0.9766100000 1.8561400000 19.0713800000 -0.1679050000 -2.1153290000 0.2360530000
C 2.6379000000 2.7336100000 8.4048000000 -0.7932170000 0.4691690000 -0.8292570000
C 2.6304800000 8.3210000000 8.4907800000 -0.9731910000 1.3513390000 -1.8236680000
C 1.0340100000 11.1226200000 8.4858400000 0.1736640000 1.6082150000 -1.6878250000
C 1.0877600000 5.5182600000 8.4699700000 -0.6719480000 1.4450860000 -1.5553810000
C 2.5538000000 4.5282100000 10.9199400000 -0.0204500000 1.2785820000 -1.0667960000
C 2.5676200000 10.1254100000 10.9473100000 -0.0339850000 1.3932650000 -1.0979020000
C 1.0346800000 1.7494100000 10.9595400000 -0.2813280000 0.9013330000 -1.4086680000
C 1.0519000000 7.3457500000 10.9916200000 -0.5122170000 0.6536620000 -1.9262560000
C 2.5458700000 0.7465100000 13.4518200000 -0.4470420000 -1.2370430000 -0.3117720000
C 2.5592000000 6.3829400000 13.5026200000 -0.2724880000 -1.2351250000 -1.4525060000
C 0.9719400000 9.1402400000 13.4127000000 -0.3701040000 -0.3064480000 0.5179090000
C 1.0121300000 3.6264200000 13.4767300000 -0.2028640000 -1.7671620000 -0.8057850000
C 2.4188400000 10.1247200000 16.0144300000 0.5406910000 0.2013070000 -0.4259460000
C 2.4971300000 4.6127200000 16.0433600000 -0.3316780000 -2.1003510000 -1.7084480000
C 0.9798900000 1.7266600000 15.9942200000 -0.8283500000 -1.0396510000 -0.9666040000
C 1.0082700000 7.3747300000 16.0350200000 -0.5558960000 -0.9313370000 -1.2984940000
C 0.9603000000 5.4919800000 18.6158600000 0.0430800000 0.6332530000 -1.1399090000
C 0.9358400000 11.1003700000 18.5992800000 -0.0972680000 1.5453490000 -0.9319590000
C 2.5107200000 8.2528700000 18.5550700000 0.0867540000 1.4547020000 -0.6319560000
C 2.5132800000 2.6364200000 18.5022600000 0.1893050000 1.7575340000 -1.7037120000
H 2.6157000000 2.8528600000 7.2862100000 0.0424910000 -0.3745210000 0.3917270000
H 2.4972300000 8.4394200000 7.3454200000 0.4613560000 -0.4934120000 1.1337080000
H 0.9826600000 5.6888800000 7.3423200000 0.3128040000 -0.4408720000 0.8023930000
H 1.0760700000 11.2253500000 7.3515500000 -0.1533680000 -0.3613930000 0.6810650000
84
lattice="3.0899999140 0.0000000000 0.0000000000 0.0000000000 11.2700004580 0.0000000000 0.0000000000 0.0000000000 39.2999992370" Properties=species:S:1:pos:R:3:force:R:3 energy=-560.0006131900 virial="-9.9000866450 -3.6135124911 1.8437862407 -3.6135124911 -96.1247676583 1.1913151643 1.8437862407 1.1913151643 -33.2960048621"
Ga 0.8076900000 3.4194100000 21.6774600000 -0.0285860000 0.4830280000 0.3451210000
Ga 0.7738700000 9.0899100000 21.7691900000 0.3064040000 0.2021760000 -0.4438690000
Ga 2.6735400000 2.5869300000 28.0411300000 -0.3208360000 -0.7334660000 -0.6509940000
Ga 1.5267500000 8.3859200000 27.9735600000 0.2213380000 -1.1151450000 -0.4955220000
Ga 1.3143800000 11.1021800000 26.5063300000 0.5157230000 -1.2604330000 0.0207150000
Ga 2.7769400000 5.4096800000 26.5466700000 -0.2187660000 0.2123370000 0.2789970000
Ga 1.2488800000 4.5858700000 32.9684200000 -0.0009520000 0.0306580000 0.1354380000
Ga 2.8135300000 10.0791400000 33.1176900000 -0.0201340000 -0.3255380000 -0.1267830000
Ga 0.9920600000 2.4823000000 25.1093500000 0.1847020000 0.2602040000 0.2017000000
Ga 2.9952000000 8.1710600000 25.0879200000 -0.3308970000 0.6624890000 1.9211960000
Ga 2.7063400000 1.8795100000 31.2991300000 0.0111600000 0.6501070000 0.0442200000
Ga 1.3306500000 7.5935800000 31.0690600000 -0.5299120000 0.2764750000 0.7941380000
Ga 2.5504700000 0.5052900000 23.0856800000 0.0150870000 -0.8124510000 0.1439220000
Ga 2.7128800000 6.1281800000 23.0572300000 -0.3900530000 -1.4541810000 -0.3069960000
Ga 1.3088200000 5.1025500000 29.5681400000 -0.2238360000 -0.5876380000 -0.4237470000
Ga 2.7888800000 10.7141200000 29.6577800000 -0.2574790000 -1.0524890000 0.3718100000
O 1.0480300000 4.8760400000 22.8611200000 0.4172460000 1.8353370000 0.5276860000
O 0.9782700000 10.6159400000 22.8966700000 0.0468450000 1.1206180000 0.1200530000
O 2.7051800000 3.7552300000 29.5338900000 0.7526550000 0.9653010000 -0.1536580000
O 1.1954600000 9.4117700000 29.6492500000 0.1055480000 0.7776500000 0.0554500000
O 2.6278500000 3.5230800000 25.9455600000 -0.2073560000 -0.5852400000 -1.0423820000
O 1.4225100000 9.2833500000 25.7989200000 -0.2638330000 -0.9019780000 -1.3922890000
O 1.1934300000 2.7703300000 32.0838400000 -0.2695810000 -1.5174010000 -1.1612270000
O 2.7859500000 8.2615900000 32.0796200000 0.6947330000 -0.5443990000 -1.2588590000
O 2.7210500000 10.2647600000 27.7147900000 0.0963780000 1.2064900000 -1.1070990000
O 1.2244700000 4.8469600000 27.6298900000 -0.2819190000 0.7262940000 -1.0805580000
O 2.5038000000 4.4178400000 20.7425600000 -0.1864640000 -0.9516350000 1.6458390000
O 2.4555000000 10.0176600000 20.7963600000 -0.2356800000 -0.3901180000 0.1684550000
O 0.9362400000 1.6349000000 26.9225900000 0.0305830000 0.6558850000 1.7572490000
O 0.0268900000 7.4147300000 26.9368200000 -0.0106280000 0.6193680000 0.9175890000
O 1.0409100000 1.8947700000 20.6871700000 0.0378860000 -0.3122780000 1.3028480000
O 0.9840300000 7.4365100000 20.8529700000 0.0818960000 0.3067520000 0.8718790000
O 2.8561100000 11.2606200000 31.5121500000 0.1552140000 0.1826950000 -0.0940980000
O 1.0624800000 5.5965500000 31.3299600000 -0.1763490000 0.9380810000 0.1376330000
O 0.2046500000 2.2850800000 23.2791900000 0.4115770000 0.5712110000 -0.9792330000
O 3.0050400000 8.0785900000 23.2224900000 -0.0960760000 -0.4359460000 -0.9878170000
O 2.0619500000 0.8104000000 24.8749900000 -0.2653860000 -0.2546280000 1.5103690000
O 2.2639400000 6.2759700000 24.8651000000 0.0487720000 0.4166490000 0.8827480000
O 2.3554100000 1.2708800000 29.3946400000 0.0199830000 0.2287060000 0.2736890000
O 1.8525100000 6.9694200000 29.2903500000 -0.0961160000 0.2016560000 0.5604800000
Si 2.5809700000 10.2334200000 9.0144400000 -0.0671760000 -1.1171610000 1.5451290000
Si 2.6150900000 4.6151400000 8.9524300000 0.3803270000 -1.0599980000 1.5851900000
Si 1.0512700000 1.8043500000 8.9529500000 0.4520090000 -0.9718400000 1.8512550000
Si 1.0666500000 7.4411300000 9.0422800000 0.3298810000 -1.4678800000 1.0136180000
Si 2.5687500000 0.8448700000 11.5482300000 0.1188060000 -1.2152490000 0.1586710000
Si 2.5742000000 6.4258100000 11.5004000000 0.4073830000 -0.7719160000 1.8542410000
Si 1.0190900000 9.2188800000 11.5130000000 -0.0054500000 -0.1915410000 0.9047790000
Si 0.9938200000 3.6888600000 11.5523100000 0.5342380000 -1.6071040000 0.4584470000
Si 2.5505200000 4.4564800000 14.0508000000 -0.0949530000 1.8900990000 1.5796760000
Si 2.4802500000 10.0006200000 14.0676800000 0.5818130000 1.5288550000 0.5282580000
Si 0.9806000000 1.5817400000 14.0424800000 0.4788930000 1.8424960000 1.2200520000
Si 0.9976100000 7.2412900000 14.0739700000 0.5491700000 1.3142880000 0.9551070000
Si 2.4942000000 2.6397400000 16.5641800000 0.5769650000 0.9837080000 0.9942090000
Si 2.5366800000 8.2730100000 16.6304000000 0.1089860000 0.1383980000 0.8688180000
Si 0.8716600000 11.0768500000 16.6497900000 0.4977350000 0.3082610000 -0.0637340000
Si 0.9320900000 5.4750600000 16.5942200000 0.7326920000 1.1967960000 1.6553030000
Si 2.5014500000 4.5808500000 19.1255800000 0.2919700000 -0.6816260000 -1.2990360000
Si 2.4903900000 10.2398900000 19.1251500000 -0.2948550000 -1.9489300000 0.4304550000
Si 0.9701300000 7.4154200000 19.2132200000 0.1651880000 -1.1424500000 -0.8023210000
Si 0.9843900000 1.8588700000 19.0678400000 -0.5435960000 -2.0322990000 0.1342960000
C 2.6283700000 2.7250800000 8.4090800000 -0.8074680000 0.7288170000 -2.1173250000
C 2.6263000000 8.3098900000 8.4891300000 -0.6531210000 1.5296890000 -1.5181830000
C 1.0289100000 11.1227200000 8.4851100000 0.3296600000 1.4655420000 -1.8104910000
C 1.0965600000 5.5181700000 8.4583600000 -0.8705570000 1.4873880000 -1.2167290000
C 2.5623800000 4.5275600000 10.9115000000 -0.2596610000 1.3319450000 -0.9369940000
C 2.5680800000 10.1313900000 10.9415800000 -0.0274980000 1.2164310000 -0.8995780000
C 1.0357800000 1.7508300000 10.9608900000 -0.2740590000 0.8585330000 -1.4524010000
C 1.0549400000 7.3456400000 10.9866200000 -0.5283890000 0.6755130000 -1.8088260000
C 2.5476600000 0.7528300000 13.4437000000 -0.4976480000 -1.3329900000 -0.2075090000
C 2.5735100000 6.3803700000 13.5002100000 -0.6197370000 -1.1413430000 -1.4352040000
C 0.9705500000 9.1413400000 13.4125000000 -0.3637830000 -0.3556200000 0.4561880000
C 1.0052500000 3.6291600000 13.4746400000 -0.0838390000 -1.7411460000 -0.7688780000
C 2.4199700000 10.1311100000 16.0174800000 0.4508110000 0.0454570000 -0.6153350000
C 2.4988500000 4.6130500000 16.0350900000 -0.2943620000 -1.9860860000 -1.6221510000
C 0.9803600000 1.7184100000 15.9950300000 -0.7417290000 -0.9126060000 -1.0807070000
C 1.0193500000 7.3849300000 16.0251000000 -0.7533370000 -1.0516640000 -1.1434960000
C 0.9716500000 5.4807100000 18.6186300000 -0.3763200000 0.9115780000 -1.2005850000
C 0.9292900000 11.1056000000 18.5946300000 0.2981250000 1.4603170000 -0.9191640000
C 2.5225500000 8.2490700000 18.5571600000 -0.0990790000 1.5198090000 -0.6844420000
C 2.5066300000 2.6483100000 18.4999800000 0.5389540000 1.6110100000 -1.7431530000
H 2.5604500000 2.8270300000 7.2310700000 0.2420070000 -0.3995290000 1.6989920000
H 2.5382400000 8.4406300000 7.3569600000 0.2866340000 -0.4906520000 0.8005950000
H 0.9962600000 5.6949000000 7.3439100000 0.2791630000 -0.4151480000 0.5192110000
H 1.0601400000 11.2036300000 7.3422700000 -0.1176850000 -0.3053550000 0.8496560000
84
lattice="3.0899999140 0.0000000000 0.0000000000 0.0000000000 11.2700004580 0.0000000000 0.0000000000 0.0000000000 39.2999992370" Properties=species:S:1:pos:R:3:force:R:3 energy=-559.4518701400 virial="-8.1242015418 -3.6962512530 -0.2958641085 -3.6962512530 -97.4577620610 1.4342353490 -0.2958641085 1.4342353490 -37.5312539608"
Ga 0.7881400000 3.4351600000 21.6846800000 0.0863570000 0.1946120000 0.1651050000
Ga 0.7996700000 9.0737400000 21.7587000000 0.4502250000 1.2744900000 -0.2280690000
Ga 2.7158600000 2.6185000000 28.0265800000 -0.4609600000 -1.1638780000 -0.7653040000
Ga 1.4659700000 8.3962300000 27.9752700000 0.1679630000 -1.4255660000 -0.2705170000
Ga 1.3017300000 11.0698800000 26.5440500000 0.3314460000 -0.6845000000 -0.5334730000