84
lattice="3.0899999140 0.0000000000 0.0000000000 0.0000000000 11.2700004580 0.0000000000 0.0000000000 0.0000000000 39.2999992370" Properties=species:S:1:pos:R:3:force:R:3 energy=-340.2785643200 virial="106.5703868540 18.5238471658 -5.2824932370 18.5238471658 130.9316134048 12.9249033639 -5.2824932370 12.9249033639 156.9318891900"
Ga 2.8606700000 9.7983200000 9.1602200000 0.2367070000 7.5489340000 5.5270590000
Ga 2.9155200000 4.5094700000 9.1297600000 -1.1969140000 -0.5340240000 3.7612760000
Ga 1.3025200000 1.4602400000 9.3139300000 -1.7135670000 -3.0273560000 1.6780500000
Ga 1.5212000000 7.2278100000 8.9906700000 -1.8469260000 -0.8293740000 3.7177730000
Ga 2.8640700000 0.5396300000 11.7596000000 -0.9126760000 0.7406060000 -1.3012050000
Ga 3.0087500000 6.1024700000 11.6999000000 -1.3443590000 1.1189070000 0.5896080000
Ga 1.4005000000 8.9832200000 11.5081000000 -1.2670660000 1.5457280000 0.3439790000
Ga 1.4528200000 3.4587600000 11.9148000000 -0.9311950000 1.8875870000 -2.8736480000
Ga 3.0183700000 4.3579600000 14.1278000000 -0.2306580000 -0.9325110000 0.3633520000
Ga 2.9573800000 9.7030000000 14.2573000000 -1.0820000000 0.9250490000 0.9875460000
Ga 1.3685000000 1.4054100000 13.9706000000 -1.2456420000 -0.4219770000 1.1453010000
Ga 1.5460400000 7.0832600000 14.2561000000 -0.9106310000 1.1341470000 -0.9576290000
Ga 2.7524000000 2.5465000000 16.5803000000 2.2904680000 1.0516680000 1.6131690000
Ga 0.1134200000 8.2541300000 16.8181000000 -0.6031280000 -1.2617320000 -1.5653880000
Ga 1.5845200000 11.0623000000 16.7110000000 -3.3372790000 2.7890220000 -0.1552770000
Ga 1.5225100000 5.3797100000 16.9253000000 1.0209310000 -0.1547510000 -2.3231960000
Ga 0.0741900000 4.6431700000 19.3590000000 -1.5725680000 -2.6621390000 1.9699530000
Ga 2.9363500000 10.0311000000 19.1029000000 -0.1796130000 0.4763730000 3.1968770000
Ga 1.2701700000 7.3185700000 19.3661000000 0.8212380000 -0.0947240000 2.9030580000
Ga 1.8412700000 1.7277400000 19.1892000000 -0.5329160000 -0.3540870000 1.4144070000
O 2.7001500000 2.6535800000 8.7817000000 6.4231990000 4.4810720000 10.6943040000
O 2.8178600000 8.2843800000 8.4667700000 -3.7051480000 -11.6217530000 6.7876160000
O 1.3982800000 10.9544000000 8.2647300000 -0.4935790000 2.2887320000 4.5466670000
O 1.2772600000 5.4145700000 8.5424600000 4.5250850000 7.9243600000 15.8940850000
O 2.8948100000 4.3534500000 11.1688000000 1.2055770000 -2.5030040000 -0.3637070000
O 2.8048200000 10.0968000000 11.1225000000 1.2947700000 -0.4817630000 1.7155320000
O 1.2000300000 1.7057900000 11.4583000000 0.9361290000 -0.0261590000 0.6586220000
O 1.2126900000 7.2786600000 11.1071000000 0.9773470000 -1.6617370000 -0.1194970000
O 2.8568700000 0.4389500000 13.7047000000 1.1047300000 -1.2792450000 -0.1948740000
O 3.0315200000 6.1472700000 13.8088000000 1.1446360000 1.9576530000 -0.4515100000
O 1.3214200000 8.8719300000 13.5188000000 1.2285020000 -0.9428000000 -2.2893720000
O 1.4253900000 3.2056900000 13.6627000000 0.3894270000 -0.2797530000 2.6244500000
O 2.8444300000 9.9845100000 16.2819000000 2.8648270000 -0.3439340000 -0.6238570000
O 0.1937200000 4.3971500000 15.9825000000 -0.7874690000 -0.7213280000 -0.2717490000
O 1.4180200000 1.5828000000 15.8328000000 -2.2651250000 -0.7573490000 -0.7315210000
O 1.4475500000 7.1506700000 16.0503000000 1.0829850000 -0.4299150000 1.5142360000
O 1.5341400000 5.4555200000 18.7432000000 1.1909000000 1.4312760000 0.8505980000
O 1.3641800000 11.0189000000 18.5534000000 -0.0146170000 0.1107710000 0.4165950000
O 2.8707600000 8.1456300000 18.6222000000 -1.3178260000 -0.1819440000 -0.0459970000
O 0.2270500000 2.7402300000 18.5029000000 0.7491240000 1.4330900000 0.1509190000
Si 1.5165200000 3.6406500000 21.9205000000 0.0926120000 -0.2612280000 1.0340560000
Si 1.2187200000 9.2892800000 22.0385000000 0.0102690000 -0.0757750000 0.5320950000
Si 1.6255300000 2.6668800000 28.1560000000 0.0264070000 -0.3010690000 0.4209430000
Si 1.3591400000 8.2876200000 28.1597000000 -0.0073190000 -0.4567570000 0.2758450000
Si 1.5975400000 11.1640000000 26.1313000000 0.1284220000 0.1137180000 -0.0041530000
Si 1.5419000000 5.5200400000 26.2377000000 -0.2042280000 0.1421970000 0.0421500000
Si 2.7433700000 4.0080600000 32.5696000000 0.1366520000 0.1401920000 -0.8686000000
Si 2.9247000000 9.7963500000 32.6914000000 0.2198020000 0.1375900000 -1.2529010000
Si 0.1405500000 2.8255000000 25.2511000000 -0.1164400000 -0.4293000000 -0.1989900000
Si 2.7573600000 8.2529500000 25.1639000000 0.2371980000 -0.2807610000 -0.2281340000
Si 1.5600300000 1.2935600000 31.3057000000 0.0659680000 -0.0961330000 0.0043390000
Si 1.6147800000 6.9598400000 31.2895000000 0.1359540000 0.1376190000 -0.4085090000
Si 2.5321000000 0.9630600000 22.8128000000 0.0426270000 -0.0183080000 0.5301810000
Si 0.3626600000 6.4924800000 22.8526000000 0.1128680000 0.2557340000 0.4313250000
Si 3.0186600000 5.3884800000 29.2515000000 0.0894400000 0.0999210000 -0.0577190000
Si 0.1752000000 11.0247000000 29.1484000000 -0.0799220000 0.0164590000 -0.0489040000
C 2.2784800000 2.4638500000 7.7571700000 -5.9431180000 -2.7759430000 -14.3566010000
C 0.0988100000 8.8084000000 7.5361700000 5.3472830000 7.2653590000 -15.3997830000
C 1.1359600000 5.0203300000 7.5502400000 -3.4094000000 -9.2273720000 -22.5999470000
C 1.5638400000 10.5768000000 7.1981500000 1.7455560000 -2.1823440000 -9.1884560000
H 1.8625000000 5.3944000000 22.9871000000 -0.0474710000 -0.0289160000 -0.2141960000
H 1.0165700000 11.1456000000 22.9715000000 -0.1156730000 -0.1489370000 -0.1485910000
H 1.5165200000 4.2662000000 29.0953000000 -0.0063050000 -0.1351470000 0.0075290000
H 1.6165300000 9.8520200000 29.1313000000 0.0694650000 0.1071230000 0.0089550000
H 1.5870200000 3.8982100000 25.3601000000 0.1463420000 0.2998230000 0.0022560000
H 1.3369800000 9.4057400000 25.3897000000 -0.0973250000 0.2119190000 -0.0110690000
H 0.0747100000 2.3883200000 31.6839000000 -0.1219510000 0.3469280000 -0.0287420000
H 0.0593800000 8.1419500000 31.5616000000 -0.2429070000 0.5048470000 0.2309030000
H 0.0003500000 11.1561000000 27.2569000000 -0.1168890000 -0.1163320000 0.1378960000
H 3.0185100000 5.4211300000 27.2812000000 0.2071610000 -0.0205050000 0.2323300000
H 0.1084800000 4.3338200000 20.9512000000 -0.0759090000 -0.0043500000 0.3213210000
H 2.7436300000 9.8146900000 20.8194000000 0.1506070000 0.1535230000 -0.3972020000
H 0.1043200000 2.6356900000 27.2060000000 -0.0817360000 0.1551680000 -0.3492670000
H 2.8914600000 8.0566900000 27.1109000000 -0.0285950000 0.1085940000 -0.2926990000
H 1.8594400000 2.1285800000 20.8593000000 -0.1547600000 0.0815900000 0.0549670000
H 0.8229600000 7.3607600000 20.9753000000 0.1051490000 -0.3625410000 0.3044020000
H 0.1533700000 11.1513000000 31.2286000000 -0.1538050000 -0.6583000000 0.2756710000
H 2.8303900000 5.4678400000 31.3820000000 -0.1082450000 -0.8290730000 0.3303220000
H 0.2041700000 2.6693600000 23.0762000000 0.2449050000 0.2130200000 0.1360190000
H 2.9748000000 8.3220900000 23.2352000000 -0.1664930000 0.1909920000 0.3427700000
H 2.3515100000 1.0576500000 24.9780000000 -0.0030590000 -0.2567600000 -0.3512020000
H 0.9725900000 6.7394600000 25.0124000000 -0.0244910000 -0.1098050000 -0.1376300000
H 1.6180500000 1.1323600000 29.3598000000 0.0221070000 0.3065560000 0.0551650000
H 1.5576400000 6.8202300000 29.3513000000 -0.0264340000 0.4451670000 0.0352480000
84
lattice="3.0899999140 0.0000000000 0.0000000000 0.0000000000 11.2700004580 0.0000000000 0.0000000000 0.0000000000 39.2999992370" Properties=species:S:1:pos:R:3:force:R:3 energy=-338.4660826800 virial="102.4429732013 16.7976856154 -8.9047357524 16.7976856154 134.4675551034 1.9912741058 -8.9047357524 1.9912741058 155.7324248641"
Ga 2.8858400000 9.8277900000 9.1609300000 -0.1867620000 6.4271390000 3.9473490000
Ga 2.9108400000 4.4799800000 9.1263500000 0.0058750000 1.2927060000 3.2710980000
Ga 1.2641000000 1.4388000000 9.2924000000 -0.4809230000 -2.0696570000 2.1660260000
Ga 1.5344200000 7.2130600000 8.9943000000 -2.3354560000 0.1237180000 4.2900610000
Ga 2.8584800000 0.5286400000 11.7822000000 -0.5533680000 1.0637980000 -1.8414370000
Ga 3.0171000000 6.1558800000 11.6678000000 -2.3640260000 -0.0859930000 1.0082880000
Ga 1.3885500000 8.9777400000 11.4860000000 -1.3231340000 0.6116310000 0.0685060000
Ga 1.4653100000 3.4511400000 11.9220000000 -0.9847190000 1.7537880000 -3.2529270000
Ga 3.0470400000 4.3613800000 14.1531000000 -0.3998210000 -1.5012480000 -0.7035230000
Ga 2.9578200000 9.6976600000 14.2464000000 -1.6098700000 1.0019580000 1.5147180000
Ga 1.3805800000 1.3774400000 13.9602000000 -2.2396090000 -0.0207590000 1.8675610000
Ga 1.5309500000 7.0609400000 14.2719000000 -0.5487640000 1.5431730000 -0.3839070000
Ga 2.6962600000 2.5801500000 16.5562000000 4.0169750000 2.4375820000 3.1641910000
Ga 0.0898200000 8.2931000000 16.7821000000 -0.1223930000 -3.5643010000 -0.0180120000
Ga 1.6022400000 11.0783000000 16.6741000000 -2.8132620000 1.7007760000 0.6002720000
Ga 1.5378500000 5.3443200000 16.9140000000 0.5674740000 -0.4880550000 -2.7947500000
Ga 0.0802300000 4.6789200000 19.3267000000 -1.4137280000 -2.7870880000 2.3957590000
Ga 2.9825000000 10.0190000000 19.1252000000 -1.1754770000 0.4698240000 2.6712400000
Ga 1.2625900000 7.3231300000 19.3620000000 0.7580710000 -0.2741340000 3.2270920000
Ga 1.8322400000 1.7418300000 19.2437000000 -0.3467390000 -0.2705520000 0.3045790000
O 2.7682800000 2.6806300000 8.7413800000 3.3222840000 0.4150350000 15.8707300000
O 2.8202900000 8.2433800000 8.4861000000 -7.0337680000 -13.7386820000 17.6540500000
O 1.3313700000 11.0470000000 8.3757600000 0.2055720000 -0.3426650000 -0.7800060000
O 1.3393200000 5.5000900000 8.5264100000 2.6184640000 4.0559070000 10.2141650000
O 2.8982500000 4.3651000000 11.1865000000 1.1359230000 -1.9339800000 0.1403560000
O 2.7945500000 10.1010000000 11.1238000000 1.2966090000 0.0343230000 1.3786430000
O 1.2300600000 1.6863000000 11.4565000000 0.7424820000 -0.1210660000 0.8500940000
O 1.2087000000 7.2120600000 11.0603000000 2.0364630000 -0.4826630000 -0.3672290000
O 2.8111700000 0.3959400000 13.6719000000 2.0607150000 -1.6759190000 0.0982950000
O 3.0331200000 6.1150700000 13.7715000000 0.8431520000 2.0031270000 -0.7145290000
O 1.3148300000 8.9402900000 13.5380000000 1.6770490000 -1.1387570000 -2.7267520000
O 1.4345500000 3.1823400000 13.6492000000 0.4526080000 -0.0876610000 3.1076860000
O 2.8677000000 9.9287200000 16.3070000000 1.7267540000 1.8205580000 -0.9383730000
O 0.1211800000 4.3656500000 15.9545000000 -0.2043390000 -0.2394440000 0.5657240000
O 1.5187600000 1.5765200000 15.8754000000 -3.8814760000 -1.6726920000 -2.1820060000
O 1.4872100000 7.1203000000 16.1216000000 0.7919490000 -0.2649640000 1.1055290000
O 1.5523600000 5.4762900000 18.7047000000 1.0781660000 1.7105800000 1.1030710000
O 1.3062400000 11.0472000000 18.5892000000 1.2584580000 0.4202570000 -0.4354930000
O 2.8488200000 8.1205000000 18.6767000000 -1.1283070000 0.0637780000 -1.2997360000
O 0.2309000000 2.7936500000 18.4830000000 0.3175680000 0.7924460000 0.0381320000
Si 1.5293200000 3.6555600000 21.9242000000 0.0811490000 -0.2406760000 1.0068960000
Si 1.2041400000 9.2927100000 22.0500000000 -0.0012630000 -0.0822880000 0.5493870000
Si 1.6195500000 2.6760600000 28.1528000000 0.0306110000 -0.3239600000 0.4343320000
Si 1.3439300000 8.2854900000 28.1733000000 0.0082660000 -0.4521300000 0.2679180000
Si 1.6039500000 11.1560000000 26.1306000000 0.0915040000 0.1174900000 -0.0097250000
Si 1.5338500000 5.5352500000 26.2464000000 -0.2132970000 0.0403470000 0.0364850000
Si 2.7351500000 4.0112700000 32.5671000000 0.1329030000 0.1326640000 -0.7950370000
Si 2.9260700000 9.7949000000 32.6902000000 0.2228910000 0.1291970000 -1.2692710000
Si 0.1406200000 2.8205700000 25.2479000000 -0.1388700000 -0.4203290000 -0.2365000000
Si 2.7649900000 8.2582000000 25.1684000000 0.2340940000 -0.2410570000 -0.2055990000
Si 1.5640000000 1.2924900000 31.3070000000 0.0730200000 -0.1115040000 0.0011640000
Si 1.6137900000 6.9579800000 31.2881000000 0.1454010000 0.1543900000 -0.4260990000
Si 2.5242300000 0.9720300000 22.8120000000 0.0660240000 0.0347000000 0.5604270000
Si 0.3638900000 6.4862300000 22.8595000000 0.1111980000 0.2948010000 0.4203690000
Si 3.0178500000 5.3868300000 29.2484000000 0.0837430000 0.1270140000 -0.0259460000
Si 0.1686400000 11.0219000000 29.1470000000 -0.0642810000 -0.0091820000 -0.0213440000
C 2.5748000000 2.6359000000 7.6784100000 -3.7343580000 -0.8747290000 -20.7533810000
C 0.0999700000 8.7004600000 7.6016800000 10.3364010000 11.7512170000 -26.1341310000
C 1.1562500000 5.1067500000 7.4922900000 -3.0031610000 -6.5097670000 -16.3644630000
C 1.4488600000 10.3557000000 7.2526100000 0.3369060000 -1.1354960000 -2.2028720000
H 1.8750900000 5.3922300000 22.9554000000 -0.0570500000 -0.0891480000 -0.2142330000
H 1.0062600000 11.0911000000 22.9700000000 -0.1077160000 -0.1855800000 -0.1884860000
H 1.5291000000 4.2578900000 29.1263000000 -0.0064710000 -0.1254030000 -0.0238040000
H 1.6346500000 9.8511000000 29.1411000000 0.0548370000 0.1337780000 -0.0077540000
H 1.5813700000 3.8704900000 25.3738000000 0.1697190000 0.3571510000 -0.0031800000
H 1.3225200000 9.4289800000 25.3687000000 -0.0743480000 0.1680500000 -0.0047250000
H 0.0855400000 2.4006700000 31.7012000000 -0.1343670000 0.3204420000 -0.0547870000
H 0.0417700000 8.1549000000 31.5469000000 -0.2406930000 0.5026060000 0.2426670000
H 3.0816600000 11.1448000000 27.2320000000 -0.0980530000 -0.1238230000 0.1778790000
H 3.0411400000 5.4196200000 27.2568000000 0.2089860000 -0.0010720000 0.1986090000
H 0.1321200000 4.3447000000 20.9515000000 -0.0960470000 0.0431030000 0.0390810000
H 2.7518900000 9.8035000000 20.7676000000 0.0706540000 0.1751240000 -0.0684690000
H 0.0940700000 2.6095400000 27.2199000000 -0.0868560000 0.1646750000 -0.3171240000
H 2.9029800000 8.0781300000 27.1178000000 -0.0374860000 0.1027160000 -0.3058290000
H 1.8522900000 2.1020200000 20.8153000000 -0.1165980000 0.2170200000 0.6753980000
H 0.8377300000 7.3575800000 21.0070000000 0.1749160000 -0.3762060000 0.1792770000
H 0.1621800000 11.1496000000 31.2254000000 -0.1427340000 -0.6765030000 0.2597330000
H 2.8130400000 5.4517000000 31.3914000000 -0.1019560000 -0.7921230000 0.2883180000
H 0.2029000000 2.6374100000 23.0877000000 0.2305550000 0.2356810000 0.2169450000
H 3.0008000000 8.3081000000 23.2332000000 -0.1366790000 0.1998950000 0.2982370000
H 2.3452000000 1.0428600000 24.9729000000 0.0004590000 -0.2502580000 -0.3704480000
H 0.9892700000 6.7298400000 25.0405000000 -0.0422660000 -0.1261310000 -0.0931130000
H 1.6037200000 1.1318000000 29.3389000000 0.0259830000 0.3362370000 0.0064370000
H 1.5418300000 6.7984100000 29.3529000000 -0.0223390000 0.4272380000 0.0522250000
84
lattice="3.0899999140 0.0000000000 0.0000000000 0.0000000000 11.2700004580 0.0000000000 0.0000000000 0.0000000000 39.2999992370" Properties=species:S:1:pos:R:3:force:R:3 energy=-333.6651588000 virial="125.2284303803 1.4654908858 3.5240681823 1.4654908858 124.1027868659 -18.5373693070 3.5240681823 -18.5373693070 186.2075299723"
Ga 2.9235900000 10.1219000000 9.2450900000 -6.3598830000 -5.8657070000 0.1921780000
Ga 2.8987100000 4.4045800000 9.2163700000 0.9863840000 -0.8837980000 2.4598310000
Ga 1.1270400000 1.5561400000 9.2829900000 4.3635280000 -0.5200050000 2.8730930000
Ga 1.4526500000 7.2264300000 9.1188300000 1.3742640000 0.3064100000 -0.5761510000
Ga 2.8313700000 0.5321100000 11.8189000000 1.2066780000 0.4588550000 -2.3042950000
Ga 2.9238900000 6.3724900000 11.5935000000 3.3745850000 -1.7014910000 0.9970020000
Ga 1.2684000000 8.9542800000 11.5018000000 0.9438060000 -1.3090390000 1.1117600000
Ga 1.4690200000 3.4401400000 11.7910000000 0.2685240000 -1.0575930000 -0.7271580000
Ga 0.0596400000 4.2673900000 14.2214000000 -0.5032140000 2.1126870000 -0.4893440000
Ga 2.8939300000 9.7642900000 14.2621000000 0.9970970000 -3.5440580000 0.3126470000
Ga 1.3276500000 1.2554300000 14.0408000000 0.1812550000 1.7482250000 -0.7556670000
Ga 1.4373700000 7.0288900000 14.3526000000 0.1934960000 0.1774160000 0.4058700000
Ga 2.6708000000 2.7808200000 16.6302000000 0.4519730000 -3.5599840000 1.3792560000
Ga 3.0574000000 8.1614700000 16.7011000000 1.7017940000 1.1707330000 -0.3107070000
Ga 1.5509000000 11.0945000000 16.6159000000 1.0165430000 -1.2125210000 3.1423120000
Ga 1.5736400000 5.1862800000 16.7143000000 -6.0307620000 4.1297460000 2.0144640000
Ga 0.0797400000 4.6787500000 19.1585000000 0.7000820000 -0.9148220000 2.8622840000
Ga 0.0061900000 9.9889000000 19.1592000000 -0.3049100000 1.8099840000 1.5641180000
Ga 1.2481000000 7.3336900000 19.4403000000 0.1046650000 0.3452400000 2.2153430000
Ga 1.7151200000 1.7969700000 19.2007000000 -0.1412930000 1.4098690000 2.2827100000
O 3.0420300000 2.5412100000 8.5273900000 -16.9609220000 -2.4129120000 12.8807080000
O 0.0922100000 8.1456900000 8.4043800000 4.0571980000 10.8799360000 13.2595540000
O 1.1579200000 10.9886000000 8.8374100000 5.6581170000 -2.3687350000 23.9968480000
O 1.5751800000 5.3497400000 8.3562100000 -2.3222580000 -8.6033100000 14.9988480000
O 3.0424800000 4.4264400000 11.0942000000 -0.1689430000 1.0924020000 2.4986280000
O 2.8935000000 9.9214600000 10.9865000000 -0.8801400000 2.3235090000 3.9751860000
O 1.3919400000 1.4142600000 11.0983000000 -1.3786450000 0.3518550000 1.3802120000
O 1.5522300000 7.0264100000 10.8126000000 -2.6366960000 -0.5239920000 2.8462260000
O 2.9075900000 0.1239800000 13.5633000000 -0.3140670000 -0.5289350000 1.5033500000
O 3.0559800000 6.1386700000 13.3923000000 -0.5844790000 -0.3936080000 -0.1661180000
O 1.4481600000 8.9296800000 13.4730000000 -1.0013020000 0.1148830000 -0.8583280000
O 1.5515300000 3.2940400000 13.7861000000 1.0107520000 -0.1427710000 -0.2775930000
O 0.1038700000 10.1277000000 16.0607000000 -0.9552650000 0.5775990000 0.6651780000
O 2.9023700000 4.4446500000 16.1360000000 5.9322410000 0.6074190000 -3.3205560000
O 1.5761200000 1.4353100000 15.8789000000 -0.7933090000 0.3990750000 -0.5964340000
O 1.6498900000 7.1098000000 16.4189000000 -1.8797750000 -1.5472380000 1.0745040000
O 1.6870000000 5.6582100000 18.6448000000 -0.5707470000 0.0919200000 -0.9618570000
O 1.4132000000 0.0622000000 18.7232000000 0.3922760000 -0.8327930000 -1.5323600000
O 2.7865300000 8.1902200000 18.6955000000 0.0788990000 -1.5210110000 -1.3713570000
O 0.1302300000 2.9059700000 18.4479000000 0.3205980000 -0.8662360000 1.0614170000
Si 1.6188600000 3.7201600000 21.9724000000 -0.0067110000 -0.2975020000 0.4983400000
Si 1.1370300000 9.3064900000 22.0921000000 0.0018940000 -0.0638700000 0.3042000000
Si 1.5971500000 2.7178300000 28.1590000000 -0.0521280000 -0.2892800000 0.3255430000
Si 1.2788500000 8.2922700000 28.2266000000 0.1211960000 -0.3488910000 0.1754490000
Si 1.6041400000 11.0944000000 26.1207000000 -0.0112360000 0.1755850000 0.0633650000
Si 1.5148200000 5.5801600000 26.2917000000 0.0185370000 0.0410960000 -0.0821950000
Si 2.6918100000 4.0254500000 32.5826000000 0.1737970000 0.0922260000 -0.9674560000
Si 2.9366300000 9.7805400000 32.6727000000 0.1655690000 0.2241950000 -1.2135130000
Si 0.1023000000 2.7558500000 25.2107000000 -0.1089090000 -0.2859420000 -0.1059180000
Si 2.8128300000 8.3008900000 25.1983000000 0.1105220000 -0.3145350000 -0.1540080000
Si 1.6010800000 1.2755400000 31.3078000000 0.0965830000 -0.1145990000 0.0544490000
Si 1.5915500000 6.9782800000 31.3026000000 0.2197630000 0.1767540000 -0.3223720000
Si 2.4722400000 0.9650300000 22.8424000000 -0.0622000000 0.5341100000 0.6337240000
Si 0.3725200000 6.4476500000 22.8921000000 0.2202920000 0.5229880000 0.6430070000
Si 3.0303800000 5.3674400000 29.2202000000 -0.0095480000 -0.0762550000 0.1641190000
Si 0.1171800000 11.0021000000 29.1317000000 -0.0558930000 -0.0352270000 -0.0783350000
C 0.5922400000 2.7741400000 7.7021900000 13.7430590000 4.3985220000 -19.0039570000
C 2.9416300000 7.5986900000 7.4965200000 -5.1610600000 -9.1370210000 -18.8315990000
C 1.6373500000 5.8371900000 7.4026100000 0.8462930000 9.3187400000 -20.9369710000
C 1.1051000000 11.1666000000 7.8014800000 -1.0092330000 5.6171320000 -30.5807840000
H 1.9533300000 5.3849300000 22.7325000000 -0.0950960000 -0.2891850000 -0.0358300000
H 0.9828100000 10.9284000000 22.7793000000 -0.0415490000 -0.3391220000 -0.1977610000
H 1.5177700000 4.1536700000 29.3239000000 -0.0289540000 0.0640240000 -0.0983420000
H 1.7363400000 9.7654100000 29.1783000000 0.0773060000 0.1444770000 -0.0276290000
H 1.6593100000 3.7954300000 25.4313000000 0.1975320000 0.2450670000 -0.0206220000
H 1.2781100000 9.5169600000 25.2721000000 -0.0916150000 0.0821500000 0.0467690000
H 0.0927800000 2.3888700000 31.7419000000 -0.1555120000 0.3801100000 -0.0140240000
H 0.0004100000 8.1186200000 31.5020000000 -0.2604280000 0.4106620000 0.1727870000
H 0.1001600000 11.0556000000 27.1732000000 -0.0886960000 -0.1869880000 0.2783520000
H 0.0038600000 5.4045200000 27.2495000000 0.0364910000 -0.0680590000 0.1667220000
H 0.1874300000 4.4340500000 20.8256000000 -0.0004720000 -0.0114750000 -0.2508840000
H 2.7403900000 9.7568500000 20.8183000000 0.0352080000 0.2206900000 0.1920020000
H 0.0276000000 2.4837500000 27.2375000000 0.0422990000 0.1315270000 -0.2887380000
H 2.8896600000 8.1994800000 27.2644000000 -0.1262790000 0.1359840000 -0.3562520000
H 1.8141600000 1.9640600000 20.9859000000 0.0682790000 -0.0004950000 -0.4180030000
H 1.0243100000 7.3356900000 21.0905000000 -0.0631280000 -0.2434530000 0.1720660000
H 0.1670000000 11.1930000000 31.2357000000 -0.1462500000 -0.7324540000 0.2948710000
H 2.7775600000 5.4968300000 31.3284000000 -0.0575340000 -0.7611230000 0.3121370000
H 0.2541600000 2.6505100000 23.0961000000 0.0509550000 0.2655200000 0.2364670000
H 3.0297200000 8.2989400000 23.1479000000 -0.1064230000 0.2396720000 0.2041260000
H 2.3518000000 1.1334700000 24.8398000000 -0.0052300000 -0.2713140000 -0.4962310000
H 1.0296200000 6.8586400000 25.0149000000 -0.0683040000 -0.0997380000 -0.1546260000
H 1.5591400000 1.2027100000 29.2981000000 0.0338210000 0.4437830000 -0.1110030000
H 1.4322800000 6.7123300000 29.3743000000 0.0248410000 0.3043100000 0.1029520000
84
lattice="3.0899999140 0.0000000000 0.0000000000 0.0000000000 11.2700004580 0.0000000000 0.0000000000 0.0000000000 39.2999992370" Properties=species:S:1:pos:R:3:force:R:3 energy=-345.2534534500 virial="106.8407271735 6.8485502434 -8.0308193258 6.8485502434 105.6775240539 4.3163221514 -8.0308193258 4.3163221514 128.5252702120"
Ga 2.8010000000 9.9249800000 9.2536300000 -0.4525350000 4.5565560000 2.2181770000
Ga 0.0171600000 4.3120300000 9.1728900000 -1.0375900000 -0.8832820000 3.5689170000
Ga 1.3898900000 1.9027200000 9.2324400000 -3.5936820000 -1.5276560000 3.5546540000
Ga 1.5424000000 7.2073000000 8.9999700000 -0.2395400000 -1.0435650000 0.4573520000
Ga 2.9538700000 0.4237500000 11.5457000000 -0.6401040000 1.9672060000 0.2839260000
Ga 0.0171900000 6.2581100000 11.6555000000 -2.5409940000 -1.3514920000 0.5632380000
Ga 1.2872300000 8.9108700000 11.7488000000 -1.0617930000 0.9364370000 -0.7765340000
Ga 1.5329700000 3.3226800000 11.5767000000 -0.3277280000 1.2202830000 -2.0666970000
Ga 0.1029400000 4.2864300000 14.1039000000 -0.0313570000 -1.2935810000 -0.5866680000
Ga 2.9127300000 9.6430000000 14.1388000000 0.2808340000 2.6080310000 1.6279270000
Ga 1.3916100000 1.3161300000 14.2486000000 -0.5847070000 0.3954860000 0.5060620000
Ga 1.4158800000 7.0090900000 14.2607000000 0.2737330000 -1.1093620000 -1.6662070000
Ga 2.9322100000 2.5997400000 16.7539000000 -3.3835900000 2.2361080000 1.3552610000
Ga 3.0360400000 8.0227400000 16.7680000000 -2.4421420000 2.4043680000 0.3221400000
Ga 1.6323200000 10.9798000000 16.8628000000 -1.0718990000 0.9957870000 -3.9436390000
Ga 1.3988800000 5.4734600000 16.7494000000 0.7638750000 -1.9842070000 -0.6501780000
Ga 0.1034600000 4.5933100000 18.9858000000 -1.7914980000 -1.0705260000 2.3799100000
Ga 0.0108700000 10.2147000000 19.2796000000 2.1423990000 -1.0365390000 3.0709240000
Ga 1.3079000000 7.3966000000 19.4467000000 1.1380290000 -0.2039410000 1.9407490000
Ga 1.4648200000 1.8835100000 19.2888000000 0.9903260000 -2.4365410000 3.6163530000
O 2.7162100000 2.6167800000 8.3792300000 6.2217980000 0.1776740000 1.5995880000
O 2.9652200000 8.3768200000 8.4155500000 -1.6777060000 -8.3601920000 2.5242470000
O 1.3790600000 0.1422700000 8.5280000000 -0.1188140000 0.7728050000 -0.9648330000
O 1.3941500000 5.2222600000 8.4863000000 1.2410090000 7.7008370000 9.3423980000
O 3.0486800000 4.3847000000 11.1248000000 0.3520080000 -0.0649210000 1.6596000000
O 2.7361500000 9.9368100000 11.2630000000 0.7512710000 -1.7011760000 1.2072480000
O 1.3405400000 1.5200700000 11.2662000000 0.7532150000 -1.9293780000 1.0271930000
O 1.2872500000 7.2808100000 10.9726000000 2.0753190000 0.6094830000 -0.6578830000
O 2.8793000000 0.4657800000 13.5275000000 0.7336790000 -0.5426320000 -1.0716520000
O 2.9571000000 6.1181900000 13.6850000000 -0.1274080000 0.6240000000 -0.2642570000
O 1.3827700000 8.7171700000 13.6102000000 -0.1543000000 -0.4685220000 -0.4340730000
O 1.6293100000 3.1875800000 13.3693000000 0.3090500000 -0.4792750000 1.8684900000
O 3.0598500000 10.0431000000 16.0931000000 1.0201830000 -1.4232800000 0.3884480000
O 3.0544600000 4.3946500000 15.9657000000 -0.7451430000 -0.2923830000 0.1196960000
O 1.2593400000 1.9122600000 16.1456000000 3.4402650000 -1.2745660000 -1.2188540000
O 1.3104500000 7.1888000000 16.0189000000 1.9185930000 -0.2610800000 0.2636750000
O 1.5473300000 5.5914800000 18.5827000000 1.5877410000 2.2695120000 1.1585350000
O 1.7053900000 11.0860000000 18.6187000000 -1.9650970000 1.3719740000 1.5153500000
O 3.0124800000 8.3669500000 18.6186000000 -0.7289900000 0.4007320000 0.0679550000
O 3.0466300000 2.6007800000 18.7114000000 -0.6894870000 0.7019290000 -1.8718420000
Si 1.7638400000 3.6983500000 21.9981000000 -0.1845750000 -0.3946620000 0.5790770000
Si 1.1066000000 9.2616700000 22.0695000000 0.3023330000 -0.2373850000 0.4309020000
Si 1.5558200000 2.7503700000 28.1938000000 0.0428980000 -0.4553430000 0.2608940000
Si 1.2150200000 8.3015500000 28.3219000000 0.0254400000 -0.2068910000 0.3155070000
Si 1.6632800000 11.0536000000 26.0638000000 0.0680790000 0.1526580000 0.2367790000
Si 1.5255200000 5.5807200000 26.2690000000 -0.1009150000 -0.0925770000 -0.0427430000
Si 2.6380700000 4.0588300000 32.6147000000 0.2269110000 0.1327220000 -1.0462700000
Si 2.9623800000 9.7421800000 32.6171000000 0.0934770000 0.1383320000 -1.0196390000
Si 0.0710900000 2.6872500000 25.1282000000 0.0324590000 -0.1550640000 -0.0088040000
Si 2.8661300000 8.4092600000 25.2178000000 0.0617820000 -0.4294050000 -0.1273190000
Si 1.6733600000 1.2490300000 31.3001000000 0.0619200000 -0.0144500000 -0.0293300000
Si 1.5113800000 7.0262300000 31.3514000000 0.2263930000 0.0088170000 -0.2622770000
Si 2.4179500000 0.8982700000 22.8527000000 -0.1937700000 0.6760140000 0.4356180000
Si 0.4318300000 6.4498200000 22.9009000000 0.2368100000 0.7672250000 0.5180300000
Si 3.0459100000 5.2918600000 29.2402000000 0.0399230000 -0.2000390000 0.2831660000
Si 0.0635700000 10.9851000000 29.1215000000 -0.0085060000 -0.1183540000 -0.1135680000
C 2.1495900000 2.5067700000 7.3388500000 -3.9743950000 0.2473780000 -8.2413140000
C 0.2557100000 9.0609400000 7.5219200000 2.7222310000 6.0396160000 -7.8191890000
C 1.5096900000 4.6512900000 7.5274100000 0.8003200000 -7.5333520000 -15.4516630000
C 1.7878800000 10.9479000000 7.3918500000 0.3393980000 0.1333860000 -1.0653210000
H 1.9567900000 5.4904600000 22.7253000000 0.0367350000 -0.3911150000 -0.0973400000
H 0.8540000000 0.0428800000 22.5779000000 0.0393000000 -0.3135690000 -0.0010540000
H 1.4403300000 4.0494200000 29.4446000000 -0.1230760000 0.2467100000 -0.0392000000
H 1.6969100000 9.8145700000 29.3070000000 0.1218430000 0.1778150000 -0.0144250000
H 1.6069200000 3.9450200000 25.4770000000 0.0342750000 0.3260640000 0.0630280000
H 1.3701300000 9.4791100000 25.1855000000 -0.1566320000 0.1001880000 -0.0426240000
H 0.0227500000 2.3555400000 31.7691000000 -0.1478270000 0.3667460000 -0.0009180000
H 0.0442400000 8.0883000000 31.5833000000 -0.2764460000 0.5250290000 0.1131390000
H 0.1518600000 10.9193000000 27.1820000000 -0.0872940000 -0.0583030000 0.2829970000
H 2.9966100000 5.4123300000 27.3579000000 0.0676120000 -0.0821210000 0.0292200000
H 0.2755100000 4.3913500000 20.6428000000 -0.0916470000 0.0698720000 -0.1846380000
H 2.6643000000 9.7547200000 20.8135000000 -0.1982040000 0.0113860000 0.4275730000
H 0.0449800000 2.4081800000 27.1476000000 0.0124540000 0.1584810000 -0.4010650000
H 2.7340200000 8.2189900000 27.2046000000 -0.0649760000 0.0975690000 -0.4509650000
H 1.8083500000 1.8619800000 20.9397000000 -0.1657330000 -0.2052650000 0.0204800000
H 1.3215800000 7.3501600000 21.1321000000 -0.2788480000 -0.0378550000 0.3133550000
H 0.0690400000 11.2129000000 31.2519000000 -0.1060280000 -0.6873780000 0.2803240000
H 2.8936400000 5.6108400000 31.2542000000 -0.0525100000 -0.6867210000 0.2735760000
H 0.3004400000 2.9883000000 23.1347000000 0.1708020000 0.2575590000 0.0513040000
H 2.7411100000 8.2709600000 23.1418000000 -0.1520930000 0.1103510000 0.2844820000
H 2.1584900000 1.0015200000 24.8270000000 0.0534040000 -0.2536230000 -0.4694900000
H 1.1474900000 6.8723000000 24.9612000000 -0.0439030000 -0.1095400000 -0.2168040000
H 1.5490000000 1.1563400000 29.3933000000 0.0204140000 0.4810520000 -0.0925890000
H 1.2776900000 6.7781500000 29.3188000000 -0.0170570000 0.2269320000 0.0044020000
84
lattice="3.0899999140 0.0000000000 0.0000000000 0.0000000000 11.2700004580 0.0000000000 0.0000000000 0.0000000000 39.2999992370" Properties=species:S:1:pos:R:3:force:R:3 energy=-341.5568142100 virial="117.4535152283 3.8239556190 11.0670141193 3.8239556190 109.9249114739 -17.4284085101 11.0670141193 -17.4284085101 139.2559904727"
Ga 2.8715700000 10.2128000000 9.1968300000 -4.4296090000 -3.9453790000 1.7789970000
Ga 3.0753300000 4.4628100000 9.1645400000 0.9525760000 -1.1062890000 1.5415030000
Ga 1.3072700000 1.7616900000 9.1343900000 2.8617290000 -0.5052120000 -1.7513170000
Ga 1.4765900000 7.2666500000 8.9740200000 -0.3650210000 -1.5311220000 3.3470410000
Ga 2.9889900000 0.5373700000 11.6010000000 0.4419070000 -0.6872130000 0.2306910000