80
lattice="3.0899999140 0.0000000000 0.0000000000 0.0000000000 11.2700004580 0.0000000000 0.0000000000 0.0000000000 28.0000000000" Properties=species:S:1:pos:R:3:force:R:3 energy=-545.3786011600 virial="-23.8248509398 -8.8526080642 9.9635720590 -8.8526080642 -99.1219062088 7.4544409038 9.9635720590 7.4544409038 -39.4878761279"
Ga 1.4775800000 3.9989400000 21.4388000000 -0.1675010000 -0.3153910000 0.0164710000
Ga 1.3066800000 9.4780000000 21.3111200000 0.4175640000 0.7118100000 0.8204570000
Ga 2.4271000000 1.9816200000 1.0662800000 0.2814410000 0.1030650000 0.3768060000
Ga 0.6116800000 6.7227900000 0.1509800000 0.1194950000 0.0638340000 0.6083940000
Ga 0.9282500000 0.0353800000 26.7009900000 -0.1470750000 0.0332980000 0.0062760000
Ga 2.0743300000 5.4157000000 25.6368100000 0.7662000000 -0.4903890000 -0.7340980000
Ga 1.9524200000 5.8526300000 5.7352100000 0.0555480000 -0.2516450000 -0.9613430000
Ga 0.9458500000 10.3302200000 6.3222900000 0.1983170000 -0.1442930000 0.7046750000
Ga 0.5174900000 2.5942900000 24.4796600000 -0.2771330000 -0.4796640000 0.0999200000
Ga 2.5071000000 8.4492800000 25.7731300000 0.0674370000 1.2549310000 -0.3795770000
Ga 2.2304800000 1.0655500000 4.2141400000 0.2180750000 -0.4204960000 -0.0286520000
Ga 0.7047200000 7.4642900000 3.2018200000 -0.2627090000 -0.3876900000 0.0386980000
Ga 2.8823900000 0.9981200000 21.5232100000 -0.1953490000 -0.2702640000 0.1365240000
Ga 2.8870300000 6.9150200000 22.5759200000 0.0818060000 -0.7286340000 0.0102630000
Ga 0.7324800000 3.7180700000 3.4511500000 -0.5518790000 0.7465410000 1.1564840000
Ga 2.3689100000 10.1321100000 1.5785900000 -0.0562870000 -0.5019280000 -0.2703800000
O 1.3705600000 5.8285100000 22.2628800000 -0.2205030000 0.0412910000 0.3724600000
O 1.2945500000 0.0721800000 22.2928900000 0.1904810000 0.5218800000 -0.7314000000
O 2.2613700000 3.4808800000 2.5332900000 0.3442630000 -0.9054060000 -1.7704090000
O 0.8209500000 9.1722500000 2.0970800000 -0.0973150000 -0.3085430000 0.1928890000
O 2.0822700000 3.7009200000 24.7917100000 -0.6913770000 0.2313730000 0.5921570000
O 0.9979500000 9.5780000000 25.7944600000 -0.7712730000 -1.8671370000 -0.7109590000
O 0.6881100000 2.0751100000 4.4909800000 0.3744820000 0.0157650000 -0.2378080000
O 2.2195600000 7.3932300000 4.3381900000 -0.3457900000 0.0149190000 -0.2394310000
O 2.3874400000 10.6678500000 27.7590100000 0.5840810000 0.7228440000 0.2808270000
O 0.5826100000 5.4941500000 26.6883800000 -0.4898280000 -0.6705760000 0.0923480000
O 3.0058400000 4.5355100000 20.3046900000 0.4743820000 0.6258160000 -0.2800980000
O 2.6970900000 10.5309400000 20.2207300000 1.2451970000 0.1717130000 -0.4206890000
O 0.9098500000 1.9756200000 0.0737300000 -0.6150710000 0.0101620000 0.2830540000
O 2.1647600000 7.6073100000 27.5110500000 0.2081820000 0.2466860000 0.0348610000
O 1.4739100000 2.0707200000 20.3564200000 0.1244930000 -0.2534660000 -0.9655680000
O 1.3972600000 7.9634300000 20.2331700000 -0.1043470000 -0.7400450000 -0.9330850000
O 2.5227400000 10.7927700000 5.1619200000 -0.3170810000 -0.6526330000 -0.0369060000
O 0.4397700000 5.0053600000 4.7510500000 0.3496720000 0.7266040000 0.9594750000
O 0.1351700000 2.9496200000 22.4999800000 -0.0164430000 -0.5325550000 0.0600280000
O 2.9610000000 8.7151500000 22.3189000000 -0.5638300000 0.3615550000 0.4101850000
O 0.0829900000 0.9725600000 25.3890700000 -0.0060110000 1.3820250000 -0.5451710000
O 2.3770400000 6.9510400000 24.5444300000 0.2226480000 0.2498550000 0.6790990000
O 2.3323000000 0.5379400000 2.3617800000 0.0015270000 0.9037830000 0.2404400000
O 0.3153600000 6.2013500000 1.8680900000 0.4034220000 0.5736460000 -0.0028950000
Si 2.9227300000 10.6119300000 8.6454600000 1.8452370000 -0.1003670000 -1.9555420000
Si 0.1332300000 4.9535500000 8.3550100000 -0.0798700000 -0.9350660000 -0.3508590000
Si 1.5306700000 2.1476300000 8.3532900000 0.6775050000 -0.2516970000 0.0759840000
Si 1.7501000000 7.7511000000 8.4176200000 0.1258790000 2.0618250000 -1.0666140000
Si 3.0818700000 1.1386100000 10.9364300000 0.8935590000 -0.1711160000 1.5957010000
Si 0.1344400000 6.7440200000 10.9062500000 -0.6116830000 0.4785260000 0.6387110000
Si 1.5953000000 9.6554400000 11.0300200000 -0.2137470000 -1.5769170000 -0.9623280000
Si 1.5933900000 3.8892200000 10.9699500000 0.0382870000 0.8512130000 -1.2446020000
Si 3.0694500000 4.9413900000 13.4696700000 -1.4124200000 1.1056880000 0.5727160000
Si 3.0156100000 10.5061200000 13.4898800000 0.2981360000 0.9928620000 0.0121510000
Si 1.5462900000 2.1126900000 13.5442400000 -1.0445660000 -0.3458830000 -0.5716090000
Si 1.4960200000 7.7265500000 13.4900600000 0.2808960000 -0.3037950000 -0.9836670000
Si 3.0642300000 3.0584500000 16.0462200000 0.0673240000 0.0512690000 0.7080220000
Si 3.0324100000 8.7791000000 15.9852600000 -0.0874220000 -1.3670580000 0.3590010000
Si 1.5195600000 0.2859800000 16.0928700000 -0.6665890000 -1.3595060000 -1.2197460000
Si 1.5492600000 5.9363800000 16.0356100000 -0.1820000000 -0.4218550000 0.4491630000
Si 0.0978800000 4.9311500000 18.6329400000 -2.0655190000 -1.1004440000 0.3253530000
Si 2.9245100000 10.5614900000 18.5225300000 -0.0058040000 -0.6993010000 0.5190580000
Si 1.3842600000 7.7543900000 18.6105700000 0.4014780000 2.0198160000 -0.3648330000
Si 1.4191500000 2.1032600000 18.5756100000 1.0216260000 -0.7530350000 1.1711700000
C 0.0266500000 3.0876200000 7.9279600000 -0.5207440000 0.8100620000 0.1495250000
C 0.2592000000 8.8022900000 7.8432400000 -0.9730990000 0.3698820000 0.2929400000
C 1.4449500000 0.2788200000 7.9548800000 -0.8349490000 -0.9950490000 0.1729010000
C 1.7111400000 5.9617100000 7.7376000000 -0.0609870000 -0.6182490000 -0.0474400000
C 0.1002600000 4.9112100000 10.2676400000 -0.1562820000 -0.4762200000 0.8204240000
C 0.0450000000 10.5469700000 10.4318300000 -0.5435330000 0.2870440000 1.3843920000
C 1.5845200000 2.0151200000 10.3756300000 -0.8355490000 1.1991120000 -0.5999420000
C 1.6711600000 7.7156500000 10.3306900000 0.1758170000 0.2296950000 -0.0997410000
C 3.0337700000 1.1514100000 12.9295700000 0.8077540000 -0.1218590000 -0.4678430000
C 3.0633000000 6.8059100000 12.8545100000 0.1188190000 -0.5924080000 0.0104670000
C 1.4871200000 9.5584400000 12.8621500000 -0.0771960000 0.3606780000 1.2668510000
C 1.4297900000 4.0490200000 12.8585000000 2.1992490000 -1.7271870000 0.4759080000
C 3.0286100000 10.5630200000 15.3845500000 0.3698100000 0.9409660000 0.5548060000
C 3.0865800000 4.9507200000 15.4518100000 -0.0320430000 -0.2698070000 -0.2562900000
C 1.5289600000 2.0757000000 15.4734300000 -0.0742600000 1.1518180000 -0.4827070000
C 1.5086000000 7.7450500000 15.3403800000 -0.0709700000 0.6537270000 1.3970370000
C 1.5721500000 5.9082700000 18.1045700000 0.4455460000 -0.2343320000 -0.7903340000
C 1.4101500000 0.2100200000 17.9829600000 -0.3103200000 1.3823750000 0.0119500000
C 2.9137600000 8.7836600000 17.8807300000 0.4900010000 -1.6178920000 0.5096280000
C 3.0129600000 2.9996700000 18.0211300000 -0.2292780000 1.2998440000 -0.9340830000
80
lattice="3.0899999140 0.0000000000 0.0000000000 0.0000000000 11.2700004580 0.0000000000 0.0000000000 0.0000000000 28.0000000000" Properties=species:S:1:pos:R:3:force:R:3 energy=-541.2533402100 virial="-28.3929885795 -4.8080953947 -2.0303719801 -4.8080953947 -77.8287897291 -6.5726016315 -2.0303719801 -6.5726016315 -18.4995938785"
Ga 2.1185900000 3.8734700000 21.5537300000 -0.3004530000 0.0693300000 0.2117370000
Ga 2.1682700000 9.6093300000 21.3017500000 -0.7929880000 0.6235400000 1.1550800000
Ga 1.5540900000 2.4014300000 1.0233500000 0.6867290000 1.6284710000 -1.4980470000
Ga 0.2379300000 6.8132600000 0.0324500000 0.1310380000 -0.5979920000 2.0553300000
Ga 0.6685500000 10.9516000000 26.5464500000 -0.4738860000 0.8240270000 -0.6090440000
Ga 1.7236100000 5.2735400000 25.6395700000 -0.3590460000 -2.4849320000 2.8103080000
Ga 1.5453800000 5.8679800000 5.5624500000 1.6714070000 0.9060560000 2.3325560000
Ga 0.0178900000 0.8077100000 6.4512500000 0.3795470000 0.2401180000 0.6065070000
Ga 0.0516200000 2.4235300000 26.0556900000 -0.0978460000 0.7061860000 -0.5557690000
Ga 1.8996300000 8.2891900000 25.7371000000 -1.0725530000 -1.6247560000 -0.1329580000
Ga 1.7889300000 2.0246000000 3.9779100000 0.1216140000 0.3207910000 -1.4323910000
Ga 0.0630400000 7.9369500000 3.4007700000 -0.9565600000 -0.2792310000 -0.1125740000
Ga 0.5119300000 1.1263900000 21.6242900000 0.2783160000 0.3519040000 0.5740640000
Ga 0.5568100000 6.8981000000 21.7759500000 -0.3879570000 -0.4533850000 -0.8003030000
Ga 0.1787400000 4.7976200000 2.7127900000 -0.4284230000 0.5306670000 -0.6312690000
Ga 1.4350200000 10.4059700000 1.6977400000 1.3958530000 1.1799730000 0.7725780000
O 2.0601700000 5.8165900000 22.0960600000 0.9187020000 -0.3836280000 1.0404640000
O 2.0910600000 0.1909100000 22.3423400000 -0.2798010000 -0.9219370000 -1.0277820000
O 1.6909100000 4.1953200000 1.7370600000 0.3450720000 0.1980880000 0.4507420000
O 3.0831700000 9.5269400000 2.2709200000 -1.4153800000 -0.2278950000 0.7256690000
O 1.6234800000 3.3584500000 25.4924900000 -0.2811030000 0.3234230000 -0.3856710000
O 0.2895600000 9.3008500000 25.8235600000 1.3167010000 -0.5258490000 -1.0447190000
O 0.2728000000 3.1176000000 3.7048400000 -0.6860130000 -1.9773880000 0.7864060000
O 1.5527600000 7.7765200000 4.4226400000 1.0657990000 -0.0401750000 -0.0637360000
O 1.6094900000 10.7453000000 27.9765000000 1.4063080000 0.0251210000 0.1740900000
O 0.2957400000 5.2933800000 26.9591800000 -0.4167780000 0.3877170000 -1.0372450000
O 0.6414400000 4.3891900000 20.3546400000 -0.7738440000 0.4191660000 -1.8888290000
O 0.5364600000 10.3047000000 20.1620800000 -0.1503110000 -0.1068730000 -0.7284730000
O 0.0672300000 2.6189500000 27.9282000000 -0.4295990000 -0.9100450000 0.6197880000
O 1.7945200000 7.7717000000 27.6901000000 -0.1815390000 0.3379740000 -1.0656220000
O 2.0712700000 1.7922400000 20.2847000000 0.1338490000 -0.1721550000 -0.2832370000
O 1.8189600000 7.4090200000 20.2345500000 1.0429940000 1.0770160000 -0.3679460000
O 1.7257600000 0.5996900000 5.0770800000 -0.2983960000 0.5162610000 0.4384200000
O 0.0999500000 5.4495400000 4.6000500000 -1.4814750000 -0.0653090000 -0.9930750000
O 0.4587500000 2.9236100000 22.4248200000 0.4864150000 0.0104460000 -0.3851260000
O 0.5805500000 8.7717700000 22.1835500000 -0.0088500000 -0.8992930000 0.4002820000
O 2.4800500000 0.6899600000 25.7650100000 -0.4828160000 0.3639670000 -0.1758880000
O 2.0741900000 6.6758800000 24.7414500000 0.2997530000 3.2034490000 -0.7177250000
O 1.5185300000 1.0749500000 2.1971200000 0.2628130000 -1.1891970000 1.3732860000
O 0.0570300000 6.6659300000 1.9732700000 0.2716930000 -0.8915760000 -0.1998150000
Si 0.3042200000 10.1325300000 8.3378400000 -0.0838350000 1.2375220000 0.3231070000
Si 0.2549900000 4.5178000000 8.3391900000 -0.0674240000 0.1424760000 -1.8940580000
Si 1.7559800000 1.7630700000 8.6273500000 0.1822000000 -0.2290320000 -0.9617190000
Si 1.8626400000 7.4162000000 8.4587700000 -0.3148390000 0.2351270000 -0.7431540000
Si 0.2972500000 0.7344400000 10.9757900000 0.3971350000 -0.1467970000 0.4643080000
Si 0.3699300000 6.2293500000 11.0505900000 0.0649900000 0.7389140000 -0.3086140000
Si 1.7812700000 9.1245200000 10.9230600000 1.4038320000 0.2889870000 0.1180290000
Si 1.9884500000 3.5363500000 11.0105400000 -0.3534500000 0.2743330000 -0.9174730000
Si 0.3065400000 4.2991100000 13.5730100000 -0.1573920000 1.9019780000 -0.3556980000
Si 0.4263900000 10.1366800000 13.5450900000 -0.6776340000 -0.9287220000 -0.9883700000
Si 1.9371700000 1.4964900000 13.5866200000 1.4038280000 2.2309180000 -4.1411940000
Si 1.8898100000 7.2675000000 13.4899500000 0.2848220000 -1.2175230000 1.2220640000
Si 0.4895400000 2.5605700000 16.0179900000 -0.4590840000 1.3111480000 0.3720920000
Si 0.5999800000 8.1969000000 15.9916500000 -0.6456270000 0.6508010000 0.3807060000
Si 2.1479000000 11.1260900000 16.0436300000 -0.8131550000 -0.9320700000 -0.9087040000
Si 2.0329500000 5.3593400000 16.1366900000 -1.3083320000 1.5997470000 -0.8589630000
Si 0.5231000000 4.5571200000 18.6406100000 1.1852060000 -0.0364680000 0.5454290000
Si 0.4319100000 10.1953200000 18.4522600000 -0.0810540000 -0.1744710000 0.0604270000
Si 2.1175300000 7.3806400000 18.5901200000 -1.7482740000 0.1982770000 -0.4461320000
Si 2.1071000000 1.7493400000 18.6052900000 0.0455310000 0.4941800000 -0.3881740000
C 0.1991900000 2.5434300000 7.7786700000 0.2215470000 0.3296570000 1.1925530000
C 0.3068100000 8.3919100000 7.9041500000 0.0964570000 -1.8317970000 0.7055410000
C 1.8347400000 11.2038500000 7.9482100000 0.2066710000 0.1204670000 -0.6004930000
C 1.7555800000 5.6041400000 7.7536000000 0.3443890000 -1.0272130000 -0.6641600000
C 0.4823600000 4.4015100000 10.1933000000 -1.2025290000 0.6461930000 2.5488280000
C 0.3488400000 10.1589700000 10.2126600000 -1.0330700000 -0.5259820000 2.4789240000
C 1.8338000000 1.7627900000 10.5430200000 0.3749140000 -1.6185360000 -1.7754560000
C 1.9010700000 7.2088400000 10.4174500000 -0.1679880000 0.2987820000 -0.1753360000
C 0.4676800000 0.7502400000 12.9083900000 -2.2945110000 -2.6895790000 -0.2900000000
C 0.3350500000 6.2401900000 13.1168300000 0.2382820000 -0.3831500000 -3.0231040000
C 1.8178000000 9.0546400000 12.8880900000 1.1591610000 1.6774080000 -0.2159350000
C 1.8173300000 3.4200700000 12.8760900000 1.1506760000 0.3552920000 1.4888140000
C 0.6109400000 10.1791200000 15.4133500000 -0.6453240000 -0.7284590000 0.4769990000
C 0.3645500000 4.4943100000 15.4630300000 2.0747440000 -2.3001660000 0.2080660000
C 1.9851500000 1.6209700000 15.2983200000 0.8869050000 0.7295140000 4.7699480000
C 2.1263900000 7.2425600000 15.4337000000 -0.6948800000 0.3899970000 0.0539960000
C 2.1189300000 5.5148400000 18.0323900000 -0.8247710000 -0.3044770000 0.5818620000
C 1.9331400000 11.1663600000 17.8996300000 1.5424170000 0.3803330000 0.8779230000
C 0.4752700000 8.3279100000 17.9023800000 1.0214830000 0.0961000000 0.8281980000
C 0.6241900000 2.7587900000 17.9829500000 -1.1710020000 -1.7457850000 -0.4311390000
80
lattice="3.0899999140 0.0000000000 0.0000000000 0.0000000000 11.2700004580 0.0000000000 0.0000000000 0.0000000000 28.0000000000" Properties=species:S:1:pos:R:3:force:R:3 energy=-541.0780449200 virial="-27.0225673713 8.3533513311 3.2465441952 8.3533513311 -78.4814251611 2.5002699781 3.2465441952 2.5002699781 -9.6395487549"
Ga 1.6110500000 3.6078400000 21.4129800000 0.4980540000 0.3442420000 -0.4950300000
Ga 1.6544400000 9.1948400000 21.4201100000 0.1249800000 0.6612840000 -0.4300560000
Ga 1.8826700000 2.7182600000 0.9228500000 1.0881620000 -0.1811690000 0.2935580000
Ga 0.2254800000 7.0769400000 0.3759000000 -0.4794540000 0.2460980000 -0.1441960000
Ga 0.7743400000 11.0907300000 26.8250200000 0.2537540000 -2.5870930000 1.4926810000
Ga 1.8503300000 5.3962000000 26.1975700000 -0.0604610000 -0.5258270000 0.7950180000
Ga 2.0939000000 6.4214800000 5.7604500000 0.5040710000 -0.1292740000 -2.6792700000
Ga 0.2974800000 1.0054700000 6.4833600000 0.7248950000 -0.2756080000 -0.2720530000
Ga 0.3339300000 2.4827500000 26.0196700000 -0.0876870000 0.0267640000 -2.0306850000
Ga 1.7601500000 8.3709000000 25.5519000000 0.1836540000 -0.8919890000 0.6443960000
Ga 1.7812700000 2.2138800000 3.8641300000 -2.2438130000 -1.8906840000 0.6787960000
Ga 0.7126900000 7.9338500000 3.3355600000 -0.3127630000 1.1087230000 2.3404550000
Ga 0.0864900000 0.8979000000 21.4457700000 0.1407050000 -1.1343650000 0.2898830000
Ga 2.9788800000 6.4548800000 21.5872200000 0.4318990000 -0.4504310000 -0.1903450000
Ga 0.1001800000 4.9055700000 2.8960600000 0.2510080000 -1.4656030000 1.9277870000
Ga 2.0790100000 10.6553100000 1.9677500000 -0.5274890000 -0.4534900000 -1.4142480000
O 1.4516700000 5.4094000000 22.1502000000 0.1619380000 0.0544590000 0.0026320000
O 1.6199800000 11.1428100000 22.1616400000 0.1336540000 -0.3867390000 -0.9606760000
O 1.6299500000 4.3661100000 1.8788900000 0.9646060000 -1.0754030000 -0.1525970000
O 0.4787300000 9.6088500000 2.3698700000 0.9437540000 0.7365170000 -0.2814540000
O 1.8915100000 3.4908000000 25.7301600000 -0.3170910000 0.8922380000 -0.3837450000
O 0.2341700000 9.4041800000 25.7477500000 0.4828610000 -0.5356230000 -0.4463060000
O 0.1446700000 3.1272500000 3.9262200000 2.4425500000 1.8393940000 -0.6218590000
O 2.2228700000 8.0376000000 4.3395900000 -0.2150320000 -0.0603830000 0.7571810000
O 2.2381200000 10.7544500000 27.9620100000 -0.3279400000 0.5325700000 0.4150960000
O 0.2726100000 5.4688900000 27.4057400000 -0.1095620000 -0.6700120000 -1.1088380000
O 0.0166500000 4.3086000000 20.0958300000 0.2300750000 -0.1205920000 2.4077050000
O 0.3540400000 9.7895500000 20.0170300000 -0.7604690000 0.7508840000 2.3632900000
O 0.4470300000 2.5044300000 27.8407500000 -1.3364430000 -0.1842470000 2.1254040000
O 1.7296300000 7.8733700000 27.6260700000 0.6922850000 -0.3890630000 0.9146890000
O 1.9104600000 1.6018600000 20.0924100000 -0.3067950000 -0.1407510000 -0.6574840000
O 1.6562300000 7.2226700000 20.2620100000 0.7643010000 -0.2730800000 -0.6295270000
O 1.9139900000 1.0205600000 5.2552100000 -0.7244540000 -0.2448620000 -0.5208340000
O 0.5850400000 5.7021500000 4.6434300000 -0.3699530000 0.3461320000 0.1108230000
O 0.1599800000 2.6515100000 22.1617000000 -0.4796190000 0.3532430000 0.2935460000
O 0.1294000000 8.2545700000 22.2006300000 -0.5511790000 0.6013850000 0.4772110000
O 3.0333500000 0.7312100000 25.6077100000 -0.6430540000 2.2245580000 -0.9195150000
O 1.6305300000 6.6141600000 24.9210300000 0.1216480000 1.3097500000 -0.0474720000
O 1.8869700000 1.2309600000 2.1948300000 -0.1613610000 0.7504740000 0.0336240000
O 0.2279300000 6.5883500000 2.2659500000 -0.3407200000 1.6792780000 -3.8400740000
Si 0.1567200000 10.1030300000 8.4470300000 1.0234750000 -0.0902720000 -0.6098280000
Si 0.4831600000 4.4721700000 7.9164800000 -1.5815870000 0.1130330000 1.8583170000
Si 1.8754900000 1.6094800000 8.5509100000 -0.1341240000 1.5534680000 1.7868360000
Si 1.8778000000 7.4262100000 8.3047000000 0.3753520000 -1.0405070000 0.6324160000
Si 0.3841000000 0.6457100000 11.0618300000 0.0376880000 1.3219890000 -0.4935240000
Si 0.4155200000 6.3640200000 10.8689800000 -0.7493370000 -1.7305970000 -0.5239280000
Si 1.8673400000 9.1561000000 10.9598900000 0.5458740000 -1.5690070000 -0.3145530000
Si 1.8490100000 3.5273500000 10.9073100000 1.4738590000 -0.8981290000 -0.9164180000
Si 0.3511100000 4.3992100000 13.3750900000 0.9542000000 1.3655850000 1.0887510000
Si 0.4606300000 10.0504400000 13.4432700000 -1.1947680000 -0.3800350000 -0.3143910000
Si 1.9636000000 1.7136300000 13.5304700000 -0.3316000000 -2.5244770000 -0.5412580000
Si 2.0122700000 7.2193000000 13.3873900000 0.0160360000 -0.0778580000 0.7834980000
Si 0.3596000000 2.5702500000 15.8326900000 0.3794970000 -0.2158740000 2.5512340000
Si 0.3521800000 8.0970900000 15.9571600000 -0.1856930000 -0.9811330000 0.2026110000
Si 1.8877100000 10.8508500000 16.0896400000 -1.4545070000 1.0869590000 -3.7066280000
Si 1.8444200000 5.3000800000 15.8991900000 0.4320940000 0.1037510000 1.0843630000
Si 0.2211500000 4.3452200000 18.5038600000 -0.7288080000 1.4512650000 -2.5549680000
Si 0.1673800000 9.9781800000 18.4253200000 -0.1112580000 -0.5850040000 -0.4240940000
Si 1.8674300000 7.1598200000 18.5666600000 -1.0735080000 0.1490950000 -0.8787510000
Si 1.9400300000 1.6254300000 18.3618100000 -1.6465480000 0.3350470000 0.7124710000
C 0.3439100000 2.5309000000 7.8949000000 0.0504040000 -0.6764650000 -0.8976700000
C 0.3442700000 8.2909700000 7.7806700000 -0.7422780000 0.4105710000 0.7038210000
C 1.7119900000 11.1284600000 7.9050900000 0.3269200000 -0.2138610000 0.2817050000
C 1.9278600000 5.5416700000 7.4241900000 1.0529370000 -0.6214880000 2.0943980000
C 0.4786200000 4.4197900000 10.0040800000 -1.1934830000 1.3634890000 1.5761770000
C 0.3367700000 10.0836700000 10.5141500000 -0.5948440000 0.5009450000 -2.3249180000
C 1.9488100000 1.6614200000 10.4893500000 -0.3904480000 -0.9084260000 -1.1254310000
C 1.9100100000 7.1924300000 10.2814600000 0.8748840000 2.2049310000 -0.8138460000
C 0.4081400000 0.7468400000 12.9119700000 0.2789670000 -1.0968060000 0.9161820000
C 0.4931900000 6.3347300000 12.8000500000 -1.1154350000 -1.7169500000 -0.5812590000
C 1.9505100000 9.0034900000 12.7887000000 0.2519740000 1.7466440000 1.6313150000
C 1.9365100000 3.4513300000 12.9054800000 -0.7863430000 1.4642740000 -2.1331950000
C 0.2092400000 9.9119700000 15.3077000000 2.0359750000 0.7157340000 1.3246880000
C 0.3508600000 4.3376800000 15.2962000000 -0.6145490000 1.3715950000 -0.5747420000
C 1.9280600000 1.6373200000 15.4069100000 -0.4289700000 -1.3350990000 -0.6843280000
C 1.9251500000 7.1254300000 15.3034300000 -0.2328030000 0.6953780000 0.1712550000
C 1.7052900000 5.3326300000 17.8786500000 1.3447620000 0.0287190000 0.2128680000
C 1.6302700000 10.9743600000 17.8449500000 2.2081980000 0.3007120000 1.7619540000
C 0.3021800000 8.1103200000 17.9295600000 -0.0127360000 0.1088700000 -1.0247410000
C 0.3207200000 2.6397600000 17.8015700000 0.8570200000 -2.1217700000 -0.0739020000
80
lattice="3.0899999140 0.0000000000 0.0000000000 0.0000000000 11.2700004580 0.0000000000 0.0000000000 0.0000000000 28.0000000000" Properties=species:S:1:pos:R:3:force:R:3 energy=-539.8809759500 virial="-40.3700257848 4.7954548282 -2.2094517443 4.7954548282 -87.3559792451 -11.5029033700 -2.2094517443 -11.5029033700 -32.5665725706"
Ga 2.0399600000 3.7179700000 21.5537800000 1.4428640000 1.4509740000 -1.6777860000
Ga 2.0882800000 9.2694300000 21.4570800000 0.7511230000 0.2094270000 0.1817610000
Ga 2.3924200000 3.1319800000 0.6975900000 -1.2386680000 0.0851720000 -0.5538890000
Ga 3.0882000000 7.1288400000 0.2971900000 -1.4713100000 -0.0356160000 2.5798280000
Ga 2.9158100000 11.0159000000 26.1450800000 -1.7044980000 0.7189370000 1.4238090000
Ga 1.9322300000 5.3230500000 26.2818200000 0.2561740000 0.0116530000 -1.3910080000
Ga 2.0249500000 5.1609800000 5.7377600000 0.7895920000 -0.3160800000 0.7631050000
Ga 2.1936200000 10.5805700000 5.7235400000 -0.4398070000 2.2741990000 0.1215270000
Ga 0.6438500000 2.6028400000 25.3825700000 -0.5970350000 1.4988990000 1.1499270000
Ga 1.0499000000 8.2673500000 25.6800400000 1.9936800000 -1.1679940000 0.5583640000
Ga 0.6564100000 2.2695900000 5.7761600000 1.0227540000 -0.9294700000 0.7682220000
Ga 0.2689900000 8.9528500000 3.3028800000 -0.1170010000 -0.9741180000 1.1796520000
Ga 0.6564700000 0.7734600000 21.4433500000 0.0237550000 1.2699620000 -1.5871290000
Ga 1.0307700000 6.6492200000 21.7980900000 -0.7721570000 -2.5608920000 -0.2246280000
Ga 0.4258100000 5.2407300000 3.0261500000 0.2954880000 1.0154580000 -0.7286920000
Ga 1.0092300000 0.1879600000 1.4567300000 0.3231150000 0.3389410000 -0.7559390000
O 2.4885400000 5.4845200000 22.3116800000 -0.3085780000 1.0982030000 -0.2284160000
O 2.2119100000 11.1511000000 22.0763300000 -0.2031080000 -0.7122460000 0.8567540000
O 2.0299600000 4.3182900000 2.3762700000 -0.6091910000 0.3412260000 0.1296850000
O 2.8567900000 10.3172900000 2.2040200000 0.0560250000 0.1610580000 -0.7661640000
O 2.1102800000 3.7527800000 25.1406700000 0.6817710000 -0.6322300000 0.1957230000
O 2.7928200000 9.3337500000 25.3102800000 -2.3004040000 -0.4479820000 -0.6553170000
O 2.3024900000 3.2041200000 5.1440400000 -1.4683640000 0.9787910000 -0.1926310000
O 1.8234700000 9.0899300000 4.5607900000 0.0684870000 -0.0933820000 -1.1254840000
O 1.2180100000 10.7892300000 27.3440100000 1.1370420000 0.4343740000 1.3209440000
O 2.6032300000 5.3191700000 0.0063500000 -0.1015780000 0.3615290000 -0.4686160000
O 0.8256700000 4.5204000000 20.1301400000 0.5086440000 -0.3682980000 0.6863790000
O 0.9188200000 9.9137100000 20.1143700000 -1.6458550000 0.8157810000 1.3896710000
O 0.7009000000 2.9093100000 27.4779300000 1.0212360000 0.3044960000 0.4430960000
O 1.4363300000 7.9715400000 27.6047000000 0.9847610000 -0.1131380000 -0.4709490000
O 2.4106400000 1.3891600000 20.0183400000 -0.0357710000 0.6942610000 1.2360130000
O 2.1007200000 7.4992700000 20.3787400000 0.7813820000 -0.4511070000 -0.6127400000
O 0.5909400000 0.4986500000 4.9656000000 0.2790690000 -0.9343730000 1.0862620000
O 0.5280500000 5.8627100000 4.8077800000 -0.0891380000 -0.8247720000 -0.8341480000
O 0.5724100000 2.7676000000 22.0193300000 -0.8252390000 -1.7100830000 1.2175370000
O 0.5557700000 8.3453200000 22.3326800000 0.3071330000 1.1092260000 0.6614400000
O 0.9887400000 0.8700400000 25.2036300000 0.0625780000 -0.0530940000 -0.9094920000
O 0.4608600000 6.3252500000 25.5165500000 0.5709780000 0.4861200000 0.4468440000
O 2.3697200000 1.4970400000 1.6498600000 0.2836440000 -0.4326960000 -0.6809900000
O 2.9708400000 7.2950000000 2.3458100000 0.8073000000 -0.8905090000 -1.0041480000
Si 0.7558900000 9.9329100000 8.4241100000 0.1759090000 2.6574610000 -0.2555600000
Si 0.6153600000 4.2582000000 8.2793900000 0.8927440000 1.7574820000 0.4636880000
Si 2.2866600000 1.5047700000 8.4827900000 0.2362640000 0.2123380000 -1.6158330000
Si 2.3264800000 7.4582800000 8.3417100000 0.7361350000 -3.2575840000 0.2783890000
Si 1.0001500000 0.5664400000 10.8259100000 -2.1394890000 -0.5680730000 1.7589550000
Si 0.9520800000 6.1891200000 10.8153200000 -2.6051270000 -1.3900480000 0.3274430000
Si 2.3836200000 8.9324800000 11.0277100000 -0.2549820000 0.8146640000 -1.1645070000
Si 2.5116000000 3.3757500000 10.8108900000 -1.9764720000 1.2203860000 1.0330660000
Si 0.9333100000 4.3567400000 13.3551500000 -0.9255630000 -0.7697580000 0.8142310000
Si 0.7539200000 9.8787300000 13.5224900000 2.5242150000 0.6652080000 -1.5296700000
Si 2.5606100000 1.4809600000 13.3304300000 0.2641450000 0.0580980000 0.5341540000
Si 2.3254300000 7.0745000000 13.5275100000 0.9887130000 -0.2900880000 -2.4984110000
Si 0.9204800000 2.4298600000 15.9602600000 1.1455790000 0.8742090000 -0.7001640000
Si 0.8959200000 8.0858700000 16.1007900000 -0.4522570000 -0.7414110000 -1.7215820000
Si 2.2441300000 10.8672100000 15.9506600000 2.4113450000 0.4002690000 0.9073910000
Si 2.6664200000 5.3164900000 16.0662100000 -0.7704520000 0.2749850000 -0.4953420000
Si 0.8519700000 4.5383800000 18.4562600000 0.7606890000 -0.0413960000 1.2079750000
Si 0.6397900000 10.1291700000 18.5159300000 2.6469770000 0.3013270000 -1.0401980000
Si 2.3730500000 7.4579700000 18.7237200000 0.8519940000 -1.5526050000 -1.7858570000
Si 2.3978200000 1.6818800000 18.3781500000 1.2041180000 -1.2298810000 0.9607330000
C 0.7276000000 2.4191000000 7.8815900000 0.0143970000 -0.1597340000 -1.1639420000
C 0.8165400000 8.2560600000 7.8905800000 -1.1021120000 -0.6844280000 -0.5719430000
C 2.3102200000 10.9855000000 7.7812300000 -0.3012900000 -1.5720750000 0.5412180000
C 2.1654300000 5.2855400000 7.6687400000 0.2470060000 -0.0748990000 0.7507990000
C 0.8451200000 4.3653200000 10.2260800000 1.0375820000 -0.5634000000 -0.7773580000
C 0.7811500000 9.9967100000 10.3380200000 0.7171860000 -0.9044130000 0.1213360000
C 2.4134100000 1.5855400000 10.3626400000 1.6570070000 -1.3655470000 -1.5723340000
C 2.3958500000 7.0635100000 10.3271600000 1.9731780000 2.5762390000 -1.5549870000
C 1.1034100000 0.4973000000 12.7038400000 -2.1423710000 -0.3692520000 1.8920510000
C 0.8617500000 6.1100100000 12.6648600000 -0.1628410000 1.1101000000 3.0667230000
C 2.4385600000 8.9096100000 12.9002900000 -1.8856880000 -0.1771880000 -0.0247200000
C 2.3418400000 3.3443200000 12.7168300000 2.1982880000 -0.0836130000 0.9575870000
C 0.8627400000 9.8206300000 15.3568100000 -1.5480410000 1.4313660000 0.6282930000
C 1.1728600000 4.3641100000 15.4220300000 -1.9846590000 -0.6895950000 -0.9872830000
C 2.5123300000 1.4448900000 15.3429800000 -0.9041220000 0.1791860000 -0.6744220000
C 2.3964300000 7.1001200000 15.3557400000 0.9109460000 0.4706460000 2.0662390000
C 2.4241900000 5.5448800000 18.0114400000 0.0778100000 -0.1960080000 -0.7186620000
C 2.2710500000 11.0282000000 17.9307900000 -1.0027740000 0.6234720000 -1.6792890000
C 0.9579100000 8.3518300000 17.9537800000 -2.2295370000 -1.1814950000 0.5779970000
C 0.9490300000 2.6362800000 17.8455400000 -1.8053480000 0.2244420000 0.1154170000
80
lattice="3.0899999140 0.0000000000 0.0000000000 0.0000000000 11.2700004580 0.0000000000 0.0000000000 0.0000000000 28.0000000000" Properties=species:S:1:pos:R:3:force:R:3 energy=-539.0535527600 virial="-42.4966778625 -0.8748525749 -3.2810638358 -0.8748525749 -88.1780725175 -5.4649118904 -3.2810638358 -5.4649118904 -23.9630755652"
Ga 2.3597100000 3.2638100000 21.4470000000 -0.7214130000 0.2505300000 -0.4187730000
Ga 2.1489600000 8.9291100000 21.5837100000 -0.1164970000 1.5084380000 -0.8286830000
Ga 2.2803100000 3.3875000000 0.9496200000 0.1571480000 -1.0312060000 -2.6103520000
Ga 0.7518800000 8.2646000000 0.5855200000 0.3085750000 -0.0530940000 0.1469750000
Ga 2.7583000000 0.3366800000 25.8480800000 0.2065470000 -0.1798980000 0.5756750000
Ga 2.6936400000 6.2403600000 26.5381500000 -0.2675150000 -1.2646480000 1.4246160000
Ga 1.9771500000 4.9155300000 5.5490100000 1.0571620000 -0.5257730000 -0.1733330000
Ga 2.1707800000 10.6616700000 5.8856500000 -0.8759960000 -0.9616980000 -0.6501170000
Ga 0.7929900000 3.3075800000 25.9261200000 -0.2736740000 0.1520580000 -2.3453840000
Ga 1.5128700000 8.6466800000 25.1429200000 0.7571270000 0.3401990000 0.2151620000
Ga 0.5432600000 2.2214300000 5.8956600000 1.1399800000 -1.1933410000 -0.1665710000
Ga 0.7208300000 9.0028000000 3.4346500000 -0.1716100000 1.0481390000 2.1115580000
Ga 1.0045100000 0.4279100000 21.5110900000 -0.8843630000 -1.3433500000 -0.3136870000
Ga 0.1634800000 6.2670600000 21.6758000000 0.8460060000 -0.0653130000 -0.6378400000
Ga 0.8612300000 5.6017000000 2.8205900000 1.2594800000 1.5125940000 -0.9916330000
Ga 0.8953600000 0.5502600000 1.0046000000 1.6718550000 -1.5820360000 0.2103430000
O 1.7606700000 5.2729300000 22.1779100000 -0.0142330000 -0.7049260000 -0.1443870000
O 2.5029800000 10.8364500000 22.3370200000 -0.1999920000 -0.5445710000 -0.4377090000
O 2.5297900000 4.7897400000 2.0678900000 -1.8466920000 0.1075620000 0.5385070000
O 1.1020400000 10.1212400000 1.9738000000 -0.5511520000 0.3723120000 -1.0063400000
O 2.2104900000 4.5336600000 25.6656700000 1.1310440000 1.2801690000 0.6780780000
O 0.0719900000 9.8681700000 24.9872400000 -1.0642900000 1.1644690000 0.4176390000