168
lattice="6.1459999080 0.0000000000 0.0000000000 3.0730000890 10.6451859210 0.0000000000 0.0000000000 0.0000000000 41.7204780580" Properties=species:S:1:pos:R:3:force:R:3 energy=-1124.5870065900 virial="21.2201593977 6.1812272191 25.4874701818 6.1812272191 1.1469255954 1.0248237885 25.4874701818 1.0248237885 -23.5139594786"
Ga 2.7729300000 7.0728900000 24.5527000000 0.0477300000 0.0913630000 0.8713800000
Ga 5.8672500000 6.9113600000 24.7411100000 0.2392210000 0.7683280000 -0.2585460000
Ga 2.6460700000 1.2312100000 25.9844300000 -0.6459490000 -1.6721440000 -2.4288170000
Ga 5.8140200000 1.1130100000 24.8996300000 -0.6064540000 0.2825940000 0.0867720000
Ga 3.0629500000 8.8994000000 21.8525100000 0.4590290000 -0.0031240000 -0.1311570000
Ga 6.1568600000 8.8654900000 21.8260300000 -0.4595360000 -0.1775930000 0.3118950000
Ga 6.1241500000 3.8234900000 23.3467900000 -0.1109600000 -1.9813880000 2.5791140000
Ga 3.0316200000 3.3839600000 23.3664600000 0.1428310000 -0.3896810000 0.2487350000
Ga 4.2228200000 9.1956700000 26.6109500000 -0.6480200000 -0.7200980000 -0.0623260000
Ga 7.3627700000 9.1663500000 26.5047000000 0.1465650000 0.1203720000 -0.4364100000
Ga 5.5961100000 4.0200100000 26.6252900000 -1.1312950000 0.4537390000 -0.6834180000
Ga 2.4358100000 4.2905400000 26.4516300000 -0.4767280000 1.2939450000 0.3389620000
Ga 4.5083000000 5.9883000000 21.7135800000 -0.5896300000 1.1595540000 -0.9604300000
Ga 7.5136700000 6.0883000000 21.7064500000 0.7641640000 -0.3525200000 -0.6107990000
Ga 1.7046000000 0.8662100000 22.0484500000 -1.0523740000 -0.3959820000 -0.5549780000
Ga 4.6735200000 0.8951700000 21.8931000000 -0.2111020000 -0.2611830000 -0.8670570000
Ga 5.1200200000 7.9928500000 32.1459100000 1.6263280000 -0.2711310000 -0.5167440000
Ga 8.3467700000 7.7594800000 31.7516300000 -0.7871190000 0.0517480000 3.2338890000
Ga 3.8904800000 2.1382000000 31.5403200000 -0.0435410000 0.6779200000 1.0342550000
Ga 0.7690700000 2.5275500000 32.0445500000 1.0318770000 -2.6653130000 -0.6512790000
Ga 8.7357900000 10.5176400000 30.6358600000 -0.8195190000 -0.8067370000 0.6434210000
Ga 5.6237900000 10.2616800000 29.5934900000 -0.8503650000 -0.2616000000 -0.6507930000
Ga 3.8345100000 4.8384800000 30.7336900000 2.4863750000 -1.3660740000 -0.4158070000
Ga 7.0280300000 5.1082700000 30.8791900000 -1.2448560000 0.6451480000 -0.1569180000
Ga 0.1491500000 0.0374200000 34.0758500000 -0.2955000000 -0.6615390000 -0.5109420000
Ga 6.3021600000 10.2996600000 34.1952300000 1.1433910000 0.9911820000 0.3813690000
Ga 3.7623800000 5.4732000000 33.9696900000 0.2984370000 -0.7930920000 0.3858280000
Ga 6.9257300000 5.1652800000 33.9987500000 -0.7761040000 1.2061490000 1.4025880000
Ga 5.7003100000 7.1823800000 28.8407400000 -0.0554850000 -0.2702470000 0.9880060000
Ga 2.6522000000 7.3355100000 28.8553200000 0.4202360000 1.2345790000 -2.2683760000
Ga 4.1033500000 2.2004600000 28.3046500000 0.6165120000 0.5392210000 1.8880940000
Ga 1.0877900000 2.4078600000 28.7851300000 -1.5295940000 -0.1532660000 -1.4217510000
O 5.9886600000 5.4761200000 20.5853000000 -0.0245040000 -0.7882070000 -0.6534120000
O 2.9646100000 5.4957500000 20.5761200000 -0.2967370000 -0.2578360000 -0.0845090000
O 6.0660800000 10.6323700000 20.6205800000 0.8137490000 -1.4540830000 1.4922050000
O 9.1496600000 10.4430200000 20.6460400000 -0.1860620000 -0.2464280000 -1.3414070000
O 8.8183400000 9.3678400000 27.5584400000 0.2927020000 -0.4580120000 -0.3221380000
O 5.8238400000 9.4984500000 27.4340000000 -0.6012860000 0.6179280000 1.2971020000
O 3.8861800000 4.0036900000 27.5237900000 1.0810590000 0.4826530000 -0.3302150000
O 7.1104700000 4.1364500000 27.6269100000 1.5720870000 0.4207230000 0.4291390000
O 4.3923000000 8.0410700000 25.1066400000 -1.8053500000 -0.5080850000 -0.2710950000
O 7.2288800000 8.0870700000 24.8993200000 1.8789790000 0.7631220000 1.2037690000
O 5.9406500000 2.9526100000 25.1068100000 0.0304850000 0.1474000000 -1.6507110000
O 2.6589100000 2.9209900000 25.2185500000 0.3239800000 -0.1507320000 -1.3998880000
O 2.9450700000 7.0928400000 22.5890300000 0.0751560000 -0.9633990000 1.3628260000
O 6.0191300000 7.0175400000 22.7320800000 -0.3542600000 -0.9334040000 -0.1359130000
O 3.1958200000 1.4857100000 23.0321100000 -0.1118190000 0.9711520000 -0.1991450000
O 6.1179200000 1.5423500000 22.9619400000 0.6968810000 -0.0505860000 0.5517970000
O 7.6586200000 9.6063600000 22.7023000000 0.3170010000 0.9344350000 -0.8907420000
O 4.6111700000 9.6061500000 22.7161000000 0.3544400000 0.8131710000 -0.9130670000
O 4.5563200000 4.4065900000 22.7474500000 -1.8521410000 -0.4124900000 0.1274070000
O 1.5498200000 4.3481700000 22.6815100000 0.3225900000 0.4949380000 -0.1149730000
O 5.2194300000 5.3943900000 25.2383800000 -0.3103660000 -1.8919450000 0.6829250000
O 1.9483600000 5.5292300000 25.1874700000 0.9705190000 0.9481900000 -0.4636070000
O 4.2149200000 0.3446600000 25.4763400000 -0.1390020000 -0.5244580000 0.6212370000
O 1.0361000000 0.1318100000 25.5658400000 1.7258250000 1.3076060000 -0.1930980000
O 4.2236500000 7.0913000000 27.8570100000 -1.4271340000 0.3831630000 0.1848100000
O 7.2291400000 7.2343800000 27.8846700000 0.2545930000 -0.3891650000 0.3796540000
O 2.4641100000 1.6654300000 27.7099400000 -0.4313040000 -0.1529800000 1.0472560000
O 5.7210500000 2.0525900000 27.5328500000 0.2090640000 -0.1784400000 0.9339560000
O 4.4158600000 7.8289200000 20.5261600000 -0.1942000000 0.7568160000 1.4369370000
O 7.3704200000 7.7197700000 20.6213400000 0.8880030000 1.3713310000 -0.8803750000
O 4.6150700000 2.3593100000 20.6846900000 0.1163580000 -0.3124680000 0.7781890000
O 1.6351700000 2.2594900000 20.7984200000 -0.3510850000 0.4184470000 -0.7499280000
O 8.4806400000 9.4883600000 32.6532800000 -0.5168830000 -0.4087840000 -1.0689810000
O 5.0828000000 9.3026800000 33.3389100000 -0.4407470000 -0.3106220000 -0.0188240000
O 4.5468600000 3.9826000000 32.2676400000 -1.0558930000 0.0517060000 -0.3140470000
O 1.3321600000 4.1905700000 32.5372200000 0.9050070000 -0.1317280000 -0.4678360000
O 5.4850700000 8.5791900000 30.3572000000 0.1665620000 -0.5004120000 -0.6311760000
O 2.5411100000 8.6225600000 30.2248800000 0.1428160000 0.2767580000 -0.9310100000
O 3.4408900000 3.0299800000 29.9941700000 0.1864550000 1.0542080000 -0.7523400000
O 6.7347000000 3.3064000000 30.3203000000 0.1637980000 -0.5926500000 -0.1887640000
O 0.9087800000 0.5176300000 29.6053600000 0.9652340000 0.2087040000 0.1213340000
O 4.1097700000 0.4965800000 29.6070500000 1.0960260000 0.2785100000 0.6697120000
O 5.4332300000 5.6686000000 30.0685800000 -0.1409640000 0.5651530000 -0.5515670000
O 2.5195200000 5.9878900000 30.2329600000 -1.3395170000 -0.5689510000 0.7053400000
O 3.7206500000 6.9762500000 32.7436100000 -1.0806590000 -0.5340790000 -1.3381210000
O 6.6671200000 6.7288800000 32.1886300000 1.4167030000 0.7894150000 -0.0091380000
O 2.4862500000 1.1890700000 32.1230800000 -2.0609410000 1.1679940000 0.4279420000
O 5.4475000000 1.2624400000 32.1089800000 1.3563960000 1.0287990000 -0.7471420000
Si 6.3883700000 10.5302200000 8.7849600000 -1.3522510000 -1.0309610000 1.8482190000
Si 3.2184700000 10.5261000000 8.9628400000 -0.2315450000 -0.4959190000 0.0979660000
Si 3.3263100000 5.1905700000 8.7982600000 -3.0054520000 0.2496620000 1.5049220000
Si 6.2926900000 5.2341100000 8.7922700000 0.8492590000 -0.2361110000 0.2568330000
Si 1.5767200000 2.4819700000 8.9510600000 0.8014200000 0.6572300000 0.4636760000
Si 4.7480000000 2.4401000000 8.9554700000 -0.8816150000 2.4257620000 -1.2839760000
Si 4.7100300000 7.9238700000 8.9362400000 0.3267340000 -0.0569220000 -1.7755150000
Si 7.7904700000 7.8023700000 8.7273900000 0.5394890000 1.0659660000 1.8355620000
Si 3.1135200000 1.7794000000 11.5175700000 0.4478930000 -1.0106210000 -0.9778780000
Si 6.1261100000 1.6375700000 11.4971200000 2.5153440000 0.1000490000 -1.0258990000
Si 3.1226100000 7.0454900000 11.3994500000 0.0779260000 -0.1978110000 -1.0353880000
Si 6.1984800000 7.0743500000 11.4067500000 2.1030150000 -1.7054150000 -0.8787940000
Si 4.7016300000 9.6465400000 11.4308100000 0.1799850000 1.5516250000 0.0196420000
Si 7.7203600000 9.7483000000 11.4294900000 0.0941280000 -0.0995800000 -0.3618710000
Si 1.6994600000 4.3741700000 11.3912900000 -1.6432000000 -0.7128180000 1.0866710000
Si 4.7205700000 4.4074000000 11.2148100000 1.0431640000 -0.9015780000 2.8271460000
Si 6.1597600000 10.5585900000 13.9564200000 1.2883340000 0.4817010000 0.4172920000
Si 3.1199200000 10.5581600000 14.0503900000 0.1576600000 -0.4029990000 -0.9449310000
Si 3.1189400000 5.2426200000 13.8806900000 1.3056690000 -0.5848280000 0.5035760000
Si 6.1827500000 5.1597400000 13.8958900000 0.9723380000 -0.1171980000 0.4779820000
Si 1.6047500000 2.5161300000 13.9488600000 -0.3788940000 1.4074210000 0.7988650000
Si 4.6944500000 2.5701100000 13.9566700000 -0.0699620000 -0.2626450000 0.4735800000
Si 4.6623100000 7.9574600000 13.8245600000 -0.3387600000 -2.0762730000 2.1897530000
Si 7.6495300000 7.8699400000 13.7674900000 1.7263150000 0.9740430000 2.1368320000
Si 3.0949200000 3.4601400000 16.4752400000 -0.7236480000 -0.2764630000 0.6432320000
Si 6.1937500000 3.5386000000 16.5401900000 -0.2355050000 -2.4584930000 0.2469830000
Si 2.9669800000 8.7448800000 16.4418600000 1.9085530000 0.6316710000 -1.7880970000
Si 6.2189700000 8.7902800000 16.4760500000 -1.8392140000 -0.3793620000 -0.5704700000
Si 4.4638200000 6.1692100000 16.3839900000 2.9285260000 -0.0395260000 -0.1555020000
Si 7.6851000000 6.0766500000 16.4040500000 -0.4885270000 0.5493570000 -0.5532970000
Si 1.6050900000 0.7474900000 16.4755400000 -1.4879420000 1.0146070000 1.2122560000
Si 4.6409700000 0.8617000000 16.4944000000 -0.6133130000 -0.1380810000 -0.1108300000
Si 6.1665800000 10.5148200000 18.9806200000 -1.0134650000 -1.0013270000 -0.4401320000
Si 3.0465900000 10.4342800000 18.8976900000 -0.1740780000 1.1141110000 1.3053950000
Si 2.9354100000 5.2502800000 18.8984500000 0.7964510000 -0.6152010000 0.9562750000
Si 5.9283800000 5.1771500000 18.8874000000 2.3188560000 -0.1883700000 0.8634500000
Si 4.3898400000 7.9270300000 18.8885500000 3.5211780000 -2.6075280000 0.0423370000
Si 7.6012800000 7.8015700000 18.9150100000 -2.4882590000 -0.0485320000 0.6787000000
Si 1.6138800000 2.4397400000 19.1724300000 -1.0640740000 -0.4001670000 -0.2467310000
Si 4.6196200000 2.4696700000 19.0856000000 -0.5361170000 0.4297110000 -0.3315780000
C 3.1749400000 3.4040400000 8.4664600000 -0.0831450000 -1.0800940000 -1.8346950000
C 6.1901000000 3.4164400000 8.2504100000 0.9066140000 -0.2808630000 -0.1347410000
C 3.1592300000 8.8100400000 8.2991200000 0.4494240000 -1.0075160000 1.7360880000
C 6.2890900000 8.6740100000 8.1561400000 -0.7391880000 1.0366030000 1.0608650000
C 1.6928300000 0.6373700000 8.3307800000 -0.0778370000 1.3855830000 -1.4445020000
C 4.8292200000 0.8055500000 8.2371000000 -0.4324690000 -1.7973090000 0.8898480000
C 4.7424600000 6.1524500000 8.2412300000 0.8535730000 -0.4371820000 -1.3196570000
C 7.8897800000 6.0711600000 8.1254000000 -0.1643140000 -0.8166520000 0.3528350000
C 3.1084200000 0.0267100000 10.8429400000 0.9477070000 -1.3354870000 -1.4620960000
C 3.1707600000 10.5105600000 10.8177800000 -0.5618810000 0.8525190000 -0.0898430000
C 3.1430400000 5.2220800000 10.7433000000 1.5600860000 1.8029640000 -1.3417940000
C 6.3569100000 5.2826100000 10.7269900000 -1.6000790000 0.2257530000 -0.7927990000
C 1.5826800000 2.5902800000 10.9424200000 -0.9007570000 -0.5166160000 -2.3405610000
C 4.7272300000 2.5420000000 10.7779000000 -1.1367720000 0.4846760000 0.6000460000
C 4.7747900000 7.9203700000 10.7560200000 -2.3627200000 -0.0521910000 0.4958550000
C 7.7287400000 7.9959700000 10.7379700000 0.4270410000 -1.2314830000 -0.3549120000
C 3.1205700000 1.6967800000 13.3656500000 0.9955300000 -0.4740870000 0.1615850000
C 6.2584500000 1.6030600000 13.2862600000 -1.2519230000 1.0038990000 2.2111770000
C 3.1242200000 6.9805100000 13.2490200000 -0.1311800000 1.2386290000 0.0341350000
C 6.1898300000 6.9223000000 13.2430900000 -1.0290720000 1.0401420000 0.2941540000
C 4.6901300000 9.6785700000 13.3297900000 -0.9106020000 0.4144000000 -0.7578200000
C 7.7517900000 9.7685600000 13.3077300000 -0.7001830000 -1.8792860000 0.2113800000
C 1.6955800000 4.3247300000 13.3178900000 -2.3807920000 -0.3595610000 -0.8595440000
C 4.6805500000 4.2974400000 13.2876400000 -0.2068260000 0.6404640000 -1.4167290000
C 3.0823100000 5.2161500000 15.7493000000 -0.9763430000 -0.2265900000 0.2701940000
C 6.1687300000 5.1908000000 15.8047500000 -0.8892600000 1.6460800000 -0.3354470000
C 6.1521800000 10.5848100000 15.8513000000 1.6405970000 -0.7087690000 -0.8401070000
C 3.0772500000 10.5781800000 15.9099500000 -0.0298900000 -0.6012220000 -0.5196040000
C 1.5169100000 2.5406800000 15.8788600000 0.8929270000 0.3102340000 -0.5469200000
C 4.6536800000 2.6521600000 15.8826800000 0.1645280000 -0.8788930000 -0.4559870000
C 4.5919500000 7.9623000000 15.7716800000 0.1742190000 -0.4766110000 -0.0639780000
C 7.6963200000 7.8596100000 15.7450800000 -1.0074470000 -0.1304020000 -0.5089910000
C 1.5638700000 0.6188100000 18.3707600000 -0.9088550000 1.7662090000 -0.2437860000
C 4.5622400000 0.7242700000 18.3678600000 1.2576510000 0.2093290000 -0.3806420000
C 4.4807800000 6.0877900000 18.2386200000 -0.5353840000 0.6517710000 0.5994700000
C 7.5927400000 6.0950400000 18.2631600000 -1.0654490000 -0.9278560000 0.4405250000
C 2.9362200000 8.6455300000 18.2563700000 -1.1353800000 2.0666010000 1.1081470000
C 6.0179300000 8.7277000000 18.3724500000 1.3830130000 0.1020640000 -0.2377460000
C 3.0309400000 3.4474200000 18.4702800000 0.8982710000 -0.6606200000 -0.7899900000
C 6.1738600000 3.2773300000 18.4770100000 -0.2411090000 2.2903490000 -0.4163910000
H 1.5605400000 0.4728600000 7.1972400000 0.1366560000 0.7210070000 1.0310020000
H 6.2039900000 3.3147400000 7.1167900000 -0.0464620000 0.0895520000 0.9763360000
H 7.9083800000 6.1111700000 7.0135700000 -0.0657270000 -0.0856720000 0.2396660000
H 3.3541400000 8.8219700000 7.2652800000 0.0895600000 0.1087440000 -1.9258280000
H 3.0737700000 3.4053900000 7.3335500000 0.3278150000 -0.2660570000 0.5123820000
H 6.1815500000 8.4904400000 7.0823000000 -0.0626400000 0.4497140000 -0.3513930000
H 4.7845600000 0.5518300000 7.1905500000 0.2981550000 0.5473230000 -0.9635650000
H 4.6811700000 6.0092700000 7.0850300000 0.2037220000 0.6927150000 1.4500010000
168
lattice="6.1459999080 0.0000000000 0.0000000000 3.0730000890 10.6451859210 0.0000000000 0.0000000000 0.0000000000 41.7204780580" Properties=species:S:1:pos:R:3:force:R:3 energy=-1125.2560543400 virial="9.1070195741 -1.2203195656 13.7198169693 -1.2203195656 6.9977436554 16.8297075699 13.7198169693 16.8297075699 0.1704007636"
Ga 2.7727600000 7.0331500000 24.5040500000 -0.5918180000 0.0633440000 1.8135480000
Ga 5.8394100000 6.9388300000 24.7335100000 0.2647350000 -0.2815170000 0.2573980000
Ga 2.6197500000 1.1734400000 25.9870900000 -0.1116070000 0.3479430000 0.0039140000
Ga 5.6962700000 1.0852800000 24.8588800000 1.4509830000 -0.5713980000 -0.4179050000
Ga 3.0295200000 8.8351700000 21.8331100000 0.7586320000 1.0131350000 -0.5085340000
Ga 6.1448800000 8.8285300000 21.7850300000 -0.0626100000 0.1022860000 0.4594760000
Ga 6.1569400000 3.8198900000 23.3946000000 -2.2767630000 -0.2071810000 0.3594820000
Ga 2.9866100000 3.2820100000 23.4259600000 -0.0310540000 1.4990030000 -0.8983420000
Ga 4.1879200000 9.1679600000 26.6418800000 1.2572150000 -0.1343860000 -0.5650090000
Ga 7.4320700000 9.1432600000 26.5153800000 -1.6659150000 0.3462400000 1.1182280000
Ga 5.5490300000 4.0177800000 26.5547400000 1.8381670000 -0.2656710000 0.8457820000
Ga 2.3569700000 4.3227200000 26.4484200000 0.3869750000 0.4273730000 0.2377880000
Ga 4.4308600000 6.0300900000 21.6627500000 -0.0093960000 -0.6430530000 0.3883270000
Ga 7.4932300000 6.0734900000 21.6486900000 1.2628150000 0.1747490000 -0.2503830000
Ga 1.6866700000 0.8411400000 22.0531500000 -0.9256150000 -0.2461330000 -0.4878040000
Ga 4.6414400000 0.8881500000 21.7754600000 1.1453050000 0.1091030000 -0.1737680000
Ga 5.2517500000 8.0218000000 32.1495100000 0.7653690000 -1.8947790000 -0.8168430000
Ga 2.2466800000 7.7051900000 31.7909800000 0.4584320000 0.1757880000 0.3792450000
Ga 3.9427300000 2.0445700000 31.4616100000 -1.4940000000 0.5832980000 0.9945130000
Ga 0.7689500000 2.4901300000 31.9611200000 1.0406760000 1.4052750000 -0.2787940000
Ga 8.6962500000 10.4705400000 30.6630300000 1.3417440000 -2.0805440000 1.1113200000
Ga 5.5833900000 10.2533900000 29.5965200000 1.1535340000 0.2213450000 -1.1001550000
Ga 3.8747400000 4.8368000000 30.7925500000 0.1623640000 0.5233260000 -1.0129870000
Ga 6.9653900000 5.2020400000 30.9142900000 -1.2248000000 0.2163960000 -0.9124430000
Ga 3.2028600000 10.6089800000 34.1838000000 -0.3112900000 -0.4942400000 -0.8482910000
Ga 6.3366200000 10.2627600000 34.1611300000 1.0342800000 0.9639810000 0.3427410000
Ga 3.7627000000 5.4280300000 33.9952500000 0.3787080000 -0.7576090000 0.0278050000
Ga 6.9781500000 5.0978500000 33.9969400000 -0.6030720000 0.7962170000 1.0451760000
Ga 5.7449700000 7.2200300000 28.8477000000 -0.1073990000 0.3712200000 -0.4138700000
Ga 2.6975000000 7.3192400000 28.7718700000 -0.6404250000 0.8509640000 0.1637250000
Ga 4.1770800000 2.2770900000 28.3670000000 -1.4012840000 0.6360500000 1.3284310000
Ga 1.0945300000 2.3936900000 28.8431000000 0.4398680000 0.1568730000 -0.7739220000
O 6.1010300000 5.3868700000 20.5517500000 -1.4021610000 0.1749370000 1.7364070000
O 2.9218600000 5.5193700000 20.5536200000 -0.1783670000 0.0090290000 -0.1456160000
O 6.2299600000 10.5605400000 20.7362200000 -0.4500530000 -0.4653320000 -2.1708100000
O 3.1132300000 10.5197900000 20.5313200000 -0.3568240000 -0.4756420000 2.1741940000
O 8.8538600000 9.4278800000 27.5501600000 -0.7048310000 0.3327890000 0.1579640000
O 5.7625900000 9.5588100000 27.6128000000 0.6891770000 -0.4527950000 -0.4720520000
O 3.9394200000 3.9754300000 27.3988200000 -0.3806370000 0.1198040000 -0.2093960000
O 7.2450000000 4.2845600000 27.8102000000 -0.7087270000 -0.6030970000 -1.7970670000
O 4.1880100000 7.9728800000 25.1002300000 2.1497460000 0.4317020000 0.5076210000
O 7.4045100000 8.1287300000 24.9621500000 -1.5852960000 -0.4892000000 -0.1435640000
O 5.7827000000 2.8993900000 24.9386000000 -0.1839170000 -0.1960640000 1.5003260000
O 2.5373800000 2.8368500000 25.1440200000 -0.2092200000 0.8354160000 0.8433940000
O 2.9731100000 7.1101100000 22.7347900000 -0.1645930000 -0.8749550000 -2.2687890000
O 6.0100900000 6.8162800000 22.6699400000 -0.4423540000 1.1374780000 0.8044580000
O 3.2501500000 1.5399800000 22.9321300000 -0.6374760000 -0.4750710000 -0.1972080000
O 6.2067600000 1.5336000000 22.9276800000 -0.2551100000 -0.5835130000 0.1686150000
O 7.6862700000 9.6900000000 22.5713200000 0.2304200000 -0.0289250000 0.3354300000
O 4.6345700000 9.5861000000 22.6045700000 -0.1227760000 0.6390960000 0.0976210000
O 4.3434900000 4.3793700000 22.8520700000 1.3727910000 0.6399830000 -0.7410530000
O 1.4878400000 4.4944200000 22.6213400000 0.6073570000 -1.8815600000 1.3009600000
O 5.3118700000 5.2024400000 25.1829300000 0.7025630000 2.5936160000 -0.9771800000
O 2.0352800000 5.5956400000 25.1867700000 -0.0759740000 -1.0719330000 0.2299090000
O 4.1676600000 0.3033000000 25.5273900000 0.7288650000 -0.5796090000 0.3269260000
O 1.1813600000 0.2441900000 25.4703400000 -1.7043240000 -1.0119850000 -0.1073590000
O 4.2101600000 7.1866900000 27.8058200000 0.7228590000 0.1261570000 -0.0799590000
O 7.2961700000 7.2312900000 27.7804600000 -1.0862350000 0.0082360000 0.5728120000
O 2.4991600000 1.5433800000 27.8440700000 0.9353820000 0.5007030000 -0.2424740000
O 5.8255300000 2.1305300000 27.7172400000 -0.7621740000 -0.4890260000 -0.9860640000
O 4.4016200000 7.8776600000 20.6274700000 0.7063900000 -0.3868460000 -0.3322360000
O 7.5193800000 7.9069800000 20.6001800000 -0.3876570000 -0.6782090000 0.9134360000
O 4.7393800000 2.4104800000 20.6876300000 -0.1772250000 -0.1051940000 0.3506510000
O 1.5970600000 2.1394700000 20.6914100000 0.0653350000 0.9174440000 0.6494910000
O 8.3603400000 9.4582700000 32.4976900000 -0.0195590000 -0.1672680000 0.1223300000
O 5.1075700000 9.1755500000 33.4371500000 -0.6872700000 0.5542980000 0.6713090000
O 4.4193000000 3.9875200000 32.3081600000 0.0069200000 -0.7570180000 0.1742230000
O 1.3594200000 4.2552600000 32.4306800000 0.2325980000 -0.7942320000 0.9978400000
O 5.5931700000 8.6220700000 30.4018300000 0.2023960000 -1.2480180000 -0.6348070000
O 2.5680400000 8.6205200000 30.1175200000 -0.0478140000 -0.6069190000 0.6152630000
O 3.4558800000 3.1447500000 29.9324200000 0.9555850000 0.0075580000 0.0991360000
O 6.8968500000 3.3821400000 30.3141900000 -1.1286820000 -0.4949530000 -0.4363920000
O 0.9347600000 0.4022600000 29.6365800000 -0.8831430000 1.4712940000 0.1799550000
O 4.1295800000 0.5694700000 29.9791200000 -1.4443150000 0.5957540000 -0.7351420000
O 5.3465200000 5.7478800000 29.9367800000 0.7842190000 -0.4789900000 0.8844850000
O 2.4166900000 6.0544800000 30.3488500000 0.6362820000 -0.6263860000 -0.4789820000
O 3.9119200000 6.7695600000 32.6073600000 -1.1982340000 0.8672060000 -1.3672470000
O 6.7657400000 6.7352900000 32.2398500000 0.3147010000 0.9841420000 0.0276100000
O 2.1976900000 1.4634300000 31.9732200000 2.9389910000 -1.0264600000 0.6762740000
O 5.6517800000 1.2193700000 32.1378600000 -1.9097790000 0.8736760000 -0.3119970000
Si 6.2374000000 10.5323800000 8.8072200000 0.0674300000 2.0052780000 -0.6568260000
Si 3.1791000000 10.4889400000 8.9385900000 -0.0838410000 1.6982880000 -0.6131380000
Si 3.2086400000 5.2174100000 8.9092000000 1.3965600000 0.1312560000 -1.2348060000
Si 6.3833600000 5.2390700000 8.8861100000 -1.6837870000 0.5497060000 0.1194260000
Si 1.5583100000 2.5609800000 8.9956200000 1.1236090000 0.2345030000 -1.2279140000
Si 4.6256000000 2.6177900000 8.9235400000 2.0046470000 -1.8322400000 0.8124450000
Si 4.6195300000 7.9515500000 8.9036800000 0.7012180000 -1.4383010000 0.8790060000
Si 7.7304700000 7.9045400000 8.8036600000 0.0738160000 -0.3611540000 -0.0822410000
Si 3.1371600000 1.6688500000 11.4135300000 0.1660860000 0.1838960000 -0.4377510000
Si 6.2778200000 1.5810900000 11.4628600000 -1.8885730000 2.1297560000 0.6586340000
Si 3.0786900000 7.0498800000 11.4660100000 0.2136420000 0.1680580000 -0.4496860000
Si 6.2469200000 7.0265000000 11.3777900000 -2.0312420000 0.0102160000 0.5755970000
Si 4.7239800000 9.6836500000 11.4401800000 -0.7863760000 -0.3713770000 -0.3149520000
Si 7.6557600000 9.7124900000 11.3978000000 1.7660350000 -1.3505320000 -0.3297450000
Si 1.6471400000 4.3553300000 11.4310500000 -0.3262640000 0.5569650000 -1.3127850000
Si 4.7407200000 4.3414100000 11.3761700000 -0.5324550000 0.4053380000 0.0242300000
Si 6.3025200000 10.6240100000 13.9416800000 -1.5992090000 -0.8117870000 -0.4689780000
Si 3.1616200000 10.5733100000 13.9546400000 -0.6444650000 0.2107240000 0.2823400000
Si 3.1482000000 5.2540000000 13.8860200000 -1.1627330000 0.2791260000 0.4366070000
Si 6.1878400000 5.1909800000 13.9811800000 -1.0821750000 1.2126260000 -1.2253600000
Si 1.6981500000 2.6231000000 13.9017900000 -1.2356360000 -0.6079720000 0.8752090000
Si 4.6617100000 2.5963200000 13.9605300000 0.8475310000 0.8849110000 -0.4159120000
Si 4.6187900000 7.9591800000 13.9635000000 -0.2221140000 0.5989320000 -1.5457170000
Si 7.6356800000 7.9557100000 13.9150800000 -0.1402150000 -1.0278180000 -0.1397400000
Si 3.1504400000 3.4640400000 16.5885100000 -0.6799350000 -0.1364110000 -1.2094320000
Si 6.1694400000 3.3675600000 16.5399900000 1.0880860000 1.5219740000 -0.8766750000
Si 3.0548900000 8.7387200000 16.4620800000 -1.2976760000 0.8312860000 0.3132930000
Si 6.0974800000 8.7886000000 16.3973800000 0.9346490000 0.4929470000 0.8219010000
Si 4.6622400000 6.1750000000 16.3200600000 -2.2908340000 -0.9112520000 2.2542090000
Si 7.6783900000 6.1477500000 16.3579800000 -0.5332130000 -0.4608770000 0.6818040000
Si 1.7181800000 0.7590500000 16.4319700000 -0.9078950000 0.8660860000 -0.3155710000
Si 4.7101900000 0.8376700000 16.4622700000 0.8710270000 -1.1946480000 0.2969730000
Si 6.1277600000 10.5222200000 18.9984200000 0.1236720000 1.2468650000 -0.3296080000
Si 3.0483700000 10.5548000000 18.9252000000 0.3815330000 0.3280270000 -1.2620590000
Si 2.8753300000 5.2682700000 18.8602900000 1.0207960000 0.3871530000 0.7485590000
Si 5.9782700000 5.1482400000 18.9723100000 -0.9413220000 1.9333140000 -2.2598210000
Si 4.4402100000 7.8593300000 18.8966500000 -0.3580520000 1.0645940000 0.5509310000
Si 7.4649800000 7.7897000000 18.9269200000 1.3236570000 0.4528830000 -0.8599000000
Si 1.5512400000 2.5302300000 19.1524800000 0.2554400000 0.0310320000 -1.2868770000
Si 4.6289500000 2.5326800000 19.0972400000 0.2696490000 0.0046660000 -0.6599360000
C 3.1293900000 3.3784000000 8.2854800000 -0.7770630000 1.4395320000 0.1237510000
C 6.2633600000 3.4787000000 8.3646200000 -1.0889580000 -0.4424430000 -0.9116400000
C 3.1337500000 8.7666700000 8.2045300000 -0.4256280000 0.2892130000 2.1621980000
C 6.1448700000 8.8124800000 8.2656900000 0.5037690000 -0.6191070000 -0.9126340000
C 1.6335000000 0.8826000000 8.3132400000 -0.9573580000 -1.3160930000 -1.9791690000
C 4.7438700000 0.7632400000 8.2861500000 0.0180060000 1.2058660000 0.5946740000
C 4.8180600000 6.1543900000 8.3705700000 -0.5529480000 0.2668930000 -1.6251320000
C 7.8943000000 6.0932000000 8.2521500000 -0.9191520000 0.8252200000 0.7429930000
C 6.2349200000 10.5587000000 10.6491500000 -1.0835620000 0.5572310000 1.7512650000
C 3.1346300000 10.5157600000 10.8467000000 0.2431810000 -0.3228670000 -0.7790260000
C 3.2424500000 5.3406900000 10.7458300000 -1.3240970000 -2.1310070000 1.2736070000
C 6.2435500000 5.2632600000 10.7511900000 1.0913680000 -0.5782820000 0.4916960000
C 1.5654000000 2.5536200000 10.7879800000 1.0472230000 0.2161950000 1.9266210000
C 4.6516900000 2.5536100000 10.8566800000 1.0146030000 0.1157570000 -1.2080330000
C 4.5573700000 7.9132700000 10.8489600000 2.3701240000 0.7138340000 -1.0907430000
C 7.7311000000 7.9013300000 10.6898300000 -0.2866780000 0.6887020000 0.7933060000
C 3.2345400000 1.6865100000 13.2997400000 -1.5542730000 0.4170910000 -0.3121850000
C 6.2124700000 1.7472500000 13.4415600000 0.9778520000 -0.9943520000 -1.7578750000
C 3.0519300000 7.1201400000 13.3602600000 0.2217430000 -1.3550580000 -0.5348380000
C 6.0934300000 7.0375700000 13.3337900000 1.2895810000 -0.7204290000 -0.6779800000
C 4.6992300000 9.7891500000 13.3124600000 0.5634760000 -1.0014450000 0.3907930000
C 7.6749000000 9.6541100000 13.2636900000 1.5332760000 1.1307010000 -0.0736410000
C 1.5220100000 4.3682300000 13.2552400000 1.9223260000 0.1185880000 0.9826470000
C 4.6419000000 4.3560200000 13.2309900000 0.4081040000 0.0660480000 1.4948450000
C 3.0735500000 5.2093300000 15.8096000000 0.7277420000 0.5942020000 -0.3084810000
C 6.1191300000 5.2756500000 15.8306800000 1.3375540000 -2.0748880000 -0.5364500000
C 6.3819700000 10.5468300000 15.7557100000 -2.3347910000 -0.1003070000 1.3403550000
C 3.2003500000 10.5028900000 15.8629100000 -0.2822670000 0.7395290000 -0.4765590000
C 1.6457000000 2.5972100000 15.7913600000 -0.2103430000 -0.3232170000 1.2031480000
C 4.6561100000 2.5601800000 15.8268300000 -0.1691290000 0.7534620000 0.7093050000
C 4.5717200000 7.9216800000 15.7948500000 0.4245680000 0.3079540000 0.2988120000
C 7.6088700000 7.9270800000 15.7531900000 1.1188170000 -0.4595670000 1.1872290000
C 1.5526800000 0.8588400000 18.3027200000 0.2673020000 -1.7964370000 0.3980240000
C 4.6227100000 0.7998300000 18.3235700000 -0.9466590000 0.0844360000 0.6124500000
C 4.4242000000 6.1615300000 18.2825100000 0.9902580000 -1.3527690000 -0.3249980000
C 7.4105900000 6.0215500000 18.2701400000 2.3065270000 1.5721390000 -0.1120880000
C 2.8456200000 8.7764700000 18.3868100000 1.6289640000 -1.0984170000 -1.0686150000
C 6.0416300000 8.7494200000 18.3487200000 -1.3200650000 0.5550090000 -0.2314770000
C 3.1307400000 3.4907700000 18.4852400000 -1.1910650000 -0.7082970000 -0.1184620000
C 6.1544200000 3.4832700000 18.4319400000 -0.1103100000 -2.6020260000 -0.0539260000
H 1.4830800000 1.1548300000 7.1363500000 0.4227950000 -1.0621200000 2.2291350000
H 6.3388400000 3.4031000000 7.2433500000 -0.1582120000 0.1332740000 0.5242690000
H 7.8641200000 6.0240400000 7.1806500000 0.0295520000 -0.0127960000 -0.9877010000
H 3.0976500000 8.9146500000 7.1631000000 0.1415530000 0.0587350000 -1.7321470000
H 3.1003900000 3.2886400000 7.1664700000 -0.0202190000 0.2842740000 0.6084310000
H 6.0379200000 8.9733000000 7.1515200000 0.1725190000 -0.5771090000 0.5787860000
H 4.9532600000 1.0923800000 7.2509200000 -0.3369950000 -0.7664750000 -0.2794900000
H 4.8897600000 6.3980300000 7.2326800000 -0.2946900000 -0.8129310000 1.1581200000
168
lattice="6.1459999080 0.0000000000 0.0000000000 3.0730000890 10.6451859210 0.0000000000 0.0000000000 0.0000000000 41.7204780580" Properties=species:S:1:pos:R:3:force:R:3 energy=-1125.7394138600 virial="11.8012835971 -2.8107096558 11.0615514280 -2.8107096558 4.6715227934 17.9888143837 11.0615514280 17.9888143837 -0.8110987756"
Ga 2.7592500000 7.0601800000 24.5835700000 -0.0271230000 1.1590660000 -0.4311230000
Ga 5.8661000000 7.0320100000 24.6791200000 0.1655490000 -0.8172750000 -0.7252530000
Ga 2.5492400000 1.0943100000 25.9614000000 -0.3351360000 -0.3511280000 -0.2175060000
Ga 5.6500900000 0.9204900000 24.7402800000 0.1325070000 -0.9571210000 0.9301150000
Ga 3.0610200000 8.8653500000 21.7398100000 -0.3729400000 -0.6186220000 1.0086710000
Ga 6.1604900000 8.7835000000 21.8020200000 0.1704710000 1.3608360000 -0.3530080000
Ga 5.9090700000 3.8122800000 23.5984600000 0.3750760000 -0.6243410000 0.8334530000
Ga 2.9384200000 3.3018300000 23.4128800000 -0.9297680000 -0.5915440000 0.1189080000
Ga 4.2436500000 9.1148400000 26.6753100000 -1.3254560000 -0.6373590000 -0.8259170000
Ga 7.3195200000 9.1316800000 26.6892200000 1.5008830000 0.5105010000 -0.6703910000
Ga 5.6462400000 4.0121100000 26.4697100000 -2.3792700000 -1.3586250000 -0.5712440000
Ga 2.3554200000 4.3927700000 26.4728500000 0.0655110000 -0.5497700000 -0.8413750000
Ga 4.3730300000 5.9694300000 21.6718100000 0.7047190000 0.4038680000 0.0416920000