168
lattice="6.1459999080 0.0000000000 0.0000000000 3.0730000890 10.6451859210 0.0000000000 0.0000000000 0.0000000000 41.7204780580" Properties=species:S:1:pos:R:3:force:R:3 energy=-1132.9870571900 virial="29.1945982516 -15.0554066376 0.0417398391 -15.0554066376 4.7844588724 7.7192295520 0.0417398391 7.7192295520 21.5501426400"
Ga 2.7059000000 7.3862800000 24.4742500000 0.3642970000 -0.6039310000 -0.1697420000
Ga 5.7893600000 7.4079800000 24.4703700000 0.0368100000 -0.6909080000 -0.0539660000
Ga 3.0130200000 1.5050700000 25.9588400000 0.2851780000 -0.9740190000 -1.1511480000
Ga 6.0904700000 1.5222100000 25.9308800000 0.3643180000 -1.0685820000 -1.1592730000
Ga 2.6492000000 8.8505500000 21.7223100000 0.4666700000 -0.6029040000 -0.0306720000
Ga 5.7217500000 8.8618900000 21.7193400000 0.4670280000 -0.6719970000 -0.0504620000
Ga 5.9829300000 3.3087200000 23.0981100000 -0.2722760000 -1.0049360000 2.1119970000
Ga 2.9162900000 3.2949300000 23.0994800000 -0.4307730000 -0.9916150000 2.1576360000
Ga 4.2882800000 9.2354000000 26.5185800000 1.0661040000 0.8916420000 0.6750100000
Ga 7.3866100000 9.2515000000 26.5242400000 0.0526290000 0.9368260000 0.5253560000
Ga 6.6136500000 4.7256500000 26.2427000000 -0.1817250000 -0.2975050000 0.1209830000
Ga 3.5440900000 4.7330300000 26.2587600000 0.3712440000 -0.8486020000 0.5019840000
Ga 4.4594100000 5.8094500000 21.6221600000 0.0481020000 1.2588910000 0.4938100000
Ga 7.5254600000 5.8080200000 21.6233300000 0.2130320000 1.1940250000 0.5323700000
Ga 0.9933700000 0.8796200000 21.8365500000 -0.3188250000 -0.8217070000 -0.2830630000
Ga 4.0653700000 0.8866500000 21.8340200000 -0.2208760000 -0.8315210000 -0.2849120000
Ga 6.0237100000 7.8185900000 31.9037000000 0.4680630000 0.3052710000 -0.0186130000
Ga 2.9764500000 7.6988900000 31.7849300000 -0.3802360000 -0.2258720000 -0.6009040000
Ga 4.1759800000 2.4000900000 31.9890500000 0.7342420000 -1.1202990000 -0.0379470000
Ga 1.0843100000 2.3794600000 31.9645000000 0.8832370000 -0.8568660000 -0.3781010000
Ga 8.7549500000 10.2476800000 31.0132100000 0.9051600000 1.0880570000 0.2020220000
Ga 5.7010000000 10.2537000000 30.8426200000 -0.0803090000 2.1596440000 1.1909210000
Ga 4.3185000000 5.0386900000 30.7485900000 0.2485700000 0.1137780000 -0.8223120000
Ga 7.3696400000 5.0805000000 30.7242500000 0.5839270000 0.2008420000 -0.8594990000
Ga 8.8857300000 10.5494900000 34.2260300000 0.0052530000 0.4043620000 0.1380950000
Ga 2.7519900000 0.1249900000 34.1857700000 -0.0958070000 0.4132550000 -0.1597780000
Ga 4.1258600000 5.6262200000 33.9004600000 -0.1082690000 -1.2250360000 0.0918160000
Ga 7.1376800000 5.4801700000 33.9256400000 0.1172290000 -0.8432140000 -0.4390860000
Ga 5.5327600000 7.3747800000 28.6965500000 1.8705440000 0.7900150000 0.0429950000
Ga 2.4456800000 7.4689300000 28.6917800000 2.4797960000 0.5759970000 -0.5504230000
Ga 4.7440800000 2.6515400000 28.4509800000 -1.1791790000 1.2340900000 1.0534230000
Ga 1.6344500000 2.6822600000 28.4505700000 -0.3307070000 1.0823060000 0.8268380000
O 6.0066500000 5.1747000000 20.5893400000 -0.0848580000 -0.1854990000 0.2637420000
O 2.9343100000 5.1730400000 20.5934800000 -0.1430620000 -0.1836000000 0.1883870000
O 5.8758200000 10.3366600000 20.4835200000 0.0391530000 0.1289650000 0.3423150000
O 8.9483400000 10.3274800000 20.4901800000 0.0550380000 0.1945020000 0.2429560000
O 2.7912700000 9.4776500000 27.4694700000 -1.0815590000 0.1422870000 -0.2842060000
O 5.8595200000 9.5438700000 27.4469600000 -0.8447060000 0.0168490000 -0.4889450000
O 4.8629000000 4.2810700000 27.4450700000 0.4449670000 -0.2373550000 -0.2534530000
O 1.7631600000 4.3049300000 27.4447900000 0.6549920000 -0.2946560000 -0.0973270000
O 4.2363300000 8.3643900000 24.8484500000 0.1402230000 -0.1228920000 -0.0711700000
O 7.3230100000 8.3717400000 24.8409500000 0.0632260000 -0.0663000000 0.1221950000
O 6.3527700000 3.1907200000 25.0652900000 -0.2423160000 -0.6247700000 -0.1538300000
O 3.2743700000 3.1962500000 25.0683000000 -0.2352090000 -0.7901630000 -0.0200110000
O 2.8885900000 6.9935000000 22.5885400000 -0.3668850000 -0.4240000000 0.2880160000
O 5.9561100000 7.0062700000 22.5884700000 -0.2746730000 -0.4467890000 0.1576050000
O 2.4921600000 1.4857800000 22.8196200000 1.2891520000 0.7132640000 -0.0788510000
O 5.5734500000 1.4988600000 22.8142100000 1.1145640000 0.6271010000 -0.0843390000
O 7.3013000000 9.7092800000 22.4356000000 -0.4316660000 -0.4116590000 0.4990980000
O 4.2275800000 9.7050100000 22.4391900000 -0.4501950000 -0.4049980000 0.5047790000
O 4.4375100000 4.2269400000 22.8152700000 0.1812320000 1.6430230000 -1.0765000000
O 1.3735000000 4.2330300000 22.8509200000 0.0796990000 1.7141050000 -1.2385540000
O 5.5784600000 5.8565600000 25.3484600000 -0.6885770000 0.0073630000 -0.2406030000
O 2.5373100000 5.8900400000 25.4362900000 -1.3235960000 0.4385180000 -0.6842010000
O 4.5784600000 0.4764700000 25.5091800000 -0.5087260000 0.7722660000 0.9751640000
O 1.4867500000 0.4595600000 25.5139800000 -0.3506640000 0.9607370000 0.8845450000
O 4.1049900000 7.2934500000 27.6702700000 -1.2590760000 -0.4747060000 0.1731060000
O 7.1429500000 7.3318100000 27.6945100000 -0.7759100000 -0.7091050000 0.0386050000
O 3.1365200000 1.8298400000 27.8671300000 0.6507490000 -0.2719500000 -0.4676700000
O 6.2269600000 1.8159700000 27.8419000000 0.5443000000 -0.3802110000 -0.3291430000
O 4.5219100000 7.6661200000 20.5542400000 -0.0091150000 0.0005400000 0.2384160000
O 7.6016400000 7.6628800000 20.5533600000 -0.0200260000 0.0070390000 0.3126850000
O 4.1901400000 2.1712100000 20.5084800000 0.0067990000 0.2887510000 0.5593670000
O 1.1151600000 2.1621300000 20.5127600000 0.0129450000 0.3735930000 0.5029550000
O 2.8823100000 9.3044700000 32.6789900000 -0.1823050000 0.5644720000 -0.2969000000
O 5.9225700000 9.4696600000 32.6915600000 -0.1121030000 0.3100600000 -0.5464230000
O 4.0362300000 4.2055700000 32.3521400000 -0.2311850000 2.3200940000 1.5754320000
O 7.0819500000 4.1929200000 32.2834500000 -0.4880160000 2.0942030000 2.0452120000
O 5.8818700000 8.6462300000 30.1592200000 0.0743530000 -2.7330140000 -0.5028050000
O 2.8462000000 8.6850200000 30.0805000000 -0.0583270000 -1.2526880000 0.9009150000
O 4.5000100000 3.2250200000 30.2143700000 0.4246370000 -0.5120450000 -1.4268220000
O 1.5276800000 3.2648700000 30.1960700000 -0.0160090000 -0.4575640000 -1.1714420000
O 1.1133600000 0.5949100000 30.8027600000 -0.4468620000 0.3537470000 -0.3183850000
O 4.1891300000 0.5723500000 30.8522300000 -0.3493000000 0.7471850000 -0.5530830000
O 5.8288400000 5.9062800000 29.9398500000 0.0004720000 -0.3708770000 0.5751510000
O 2.8124100000 6.0298300000 30.0367700000 -0.4715920000 -0.5930700000 0.7260380000
O 4.5451400000 6.8036300000 32.2925100000 -0.7560150000 -0.0365780000 -0.4301110000
O 7.5326000000 6.8050600000 32.2861300000 -0.0478200000 0.0134590000 -0.3415850000
O 2.6531100000 1.9272700000 32.8962200000 -0.4205200000 -1.0984560000 0.2327490000
O 5.7533700000 1.8275900000 32.8920200000 -0.8882060000 -0.7644010000 -0.0980090000
Si 5.8939200000 10.4519900000 8.8497000000 0.2714630000 -0.0795200000 0.5299970000
Si 8.9668600000 10.4495700000 8.8509000000 0.2749550000 -0.0457800000 0.5190370000
Si 2.9061600000 5.1466100000 8.9966900000 -0.2098330000 -0.4088320000 -0.4541620000
Si 5.9796600000 5.1469900000 8.9943700000 -0.2182790000 -0.4146970000 -0.4453880000
Si 1.3540300000 2.4361900000 8.9469500000 -0.3220730000 0.5105070000 -0.0349800000
Si 4.4269200000 2.4359800000 8.9476100000 -0.3134570000 0.5183580000 -0.0545950000
Si 4.3998200000 7.8300300000 8.9006500000 -0.0516010000 -0.6951310000 0.0344230000
Si 7.4726100000 7.8322300000 8.9028000000 -0.0445450000 -0.7265260000 0.0218880000
Si 2.8075600000 1.5143800000 11.4609000000 0.2985800000 0.2969410000 -0.5412290000
Si 5.8794000000 1.5155100000 11.4597100000 0.3290500000 0.2754140000 -0.5111460000
Si 2.8325000000 6.8621500000 11.4312300000 0.1349420000 0.1468670000 0.0800500000
Si 5.9045700000 6.8626400000 11.4285400000 0.1359470000 0.1432430000 0.1284160000
Si 4.3976600000 9.5124200000 11.4014000000 -0.2452260000 0.0571410000 -0.0595430000
Si 7.4697900000 9.5121100000 11.4025900000 -0.2307970000 0.0608540000 -0.0760540000
Si 1.3284100000 4.2000200000 11.4711200000 -0.1478880000 -0.2766930000 -0.1895370000
Si 4.4038500000 4.1981500000 11.4716700000 -0.1902360000 -0.2470080000 -0.1869490000
Si 5.9148600000 10.3679800000 13.8627500000 0.0936620000 -0.5654570000 0.5268450000
Si 8.9878700000 10.3684000000 13.8607200000 0.1070450000 -0.5599640000 0.5168940000
Si 2.8247200000 5.0087300000 13.9786500000 0.1734030000 0.5583870000 -0.3443720000
Si 5.8953000000 5.0102900000 13.9817700000 0.2395340000 0.5497590000 -0.3870880000
Si 1.2790600000 2.3829300000 13.9486100000 0.1091980000 -0.3801540000 -0.1917810000
Si 4.3503200000 2.3807400000 13.9512400000 0.1461960000 -0.3684720000 -0.1973640000
Si 4.3636700000 7.6666900000 13.9256000000 0.1466400000 0.2345530000 -0.2082510000
Si 7.4376200000 7.6667600000 13.9249000000 0.1136310000 0.2273930000 -0.1981140000
Si 2.8452100000 3.2184800000 16.4180300000 -0.1003340000 -0.3077220000 0.5295270000
Si 5.9214100000 3.2176900000 16.4128900000 -0.1435760000 -0.2844500000 0.6014950000
Si 2.8805300000 8.5298100000 16.3568300000 0.0663020000 -0.0821420000 0.5360920000
Si 5.9518700000 8.5269900000 16.3566000000 0.0952490000 -0.0542020000 0.5678640000
Si 4.3785200000 5.8660400000 16.4865600000 0.2299920000 0.0231020000 -0.6496330000
Si 7.4542200000 5.8694100000 16.4887000000 0.2088240000 0.0029340000 -0.6924440000
Si 1.3592100000 0.5145100000 16.3850100000 -0.1963400000 0.2851330000 -0.2385980000
Si 4.4351300000 0.5126300000 16.3863500000 -0.2437510000 0.3045050000 -0.2732280000
Si 5.9989100000 10.2874500000 18.8689900000 -0.2794830000 0.2952040000 -1.3198490000
Si 9.0731500000 10.2924200000 18.8747700000 -0.2766840000 0.2315860000 -1.3199430000
Si 2.9162300000 4.9667500000 18.9077700000 -0.1390600000 -0.0673750000 -0.0184870000
Si 5.9907000000 4.9714900000 18.9036400000 -0.1706130000 -0.1213070000 -0.0536140000
Si 4.5355000000 7.6693900000 18.8912700000 -0.5846620000 -0.4982270000 -0.4664880000
Si 7.6163500000 7.6718100000 18.8934800000 -0.7142000000 -0.5255220000 -0.5439380000
Si 1.2197300000 2.2727600000 18.9110700000 0.6818260000 -0.0035680000 -0.1633210000
Si 4.2952200000 2.2711200000 18.9057100000 0.6464730000 0.0379630000 -0.1151200000
C 2.8941200000 3.3601800000 8.3815000000 -0.0812780000 -0.0161790000 -0.0519950000
C 5.9672200000 3.3603600000 8.3816200000 -0.0859290000 -0.0224420000 -0.0594250000
C 2.8601000000 8.6813300000 8.2653700000 -0.0068920000 0.0694440000 0.1864050000
C 5.9329900000 8.6826700000 8.2662300000 -0.0051850000 0.0602250000 0.1794070000
C 1.2869200000 0.6868200000 8.2693500000 0.1542860000 0.2219550000 0.1379190000
C 4.3610900000 0.6868400000 8.2688000000 0.1510170000 0.2210300000 0.1447450000
C 4.4402900000 6.0372300000 8.3930300000 -0.0841810000 -0.2630070000 -0.2688120000
C 7.5138500000 6.0390900000 8.3942400000 -0.0864270000 -0.2699360000 -0.2674440000
C 5.9250300000 10.4086800000 10.7707600000 -0.0627630000 0.0142650000 -0.3054990000
C 8.9971400000 10.4085900000 10.7717200000 -0.0538190000 0.0093230000 -0.3096770000
C 2.8693800000 5.0959100000 10.8605000000 -0.0507870000 -0.2561490000 -0.1437240000
C 5.9413500000 5.0967000000 10.8580700000 -0.0420590000 -0.2644860000 -0.1291370000
C 1.2818100000 2.4146600000 10.8347900000 0.1720210000 0.0535740000 -0.0812970000
C 4.3544800000 2.4147800000 10.8344800000 0.1714240000 0.0454000000 -0.0770010000
C 4.3718000000 7.7568700000 10.7832600000 0.0637320000 -0.0652150000 -0.0130760000
C 7.4454200000 7.7564800000 10.7850200000 0.0620990000 -0.0607890000 -0.0174690000
C 2.8144500000 1.5001600000 13.3295000000 0.0846720000 0.0613110000 -0.2356280000
C 5.8874100000 1.5011000000 13.3295200000 0.0824590000 0.0618650000 -0.2431430000
C 2.8250200000 6.7895500000 13.3140800000 0.0823490000 0.0857420000 0.0095800000
C 5.8969400000 6.7898200000 13.3130300000 0.0935120000 0.0918600000 0.0172610000
C 4.3809900000 9.4631400000 13.2757500000 -0.0474650000 -0.0010190000 0.0468050000
C 7.4534600000 9.4638100000 13.2758800000 -0.0421130000 -0.0114490000 0.0548760000
C 1.2937700000 4.1477500000 13.3464300000 -0.0335900000 0.0305910000 0.1236790000
C 4.3679800000 4.1449200000 13.3479000000 -0.0367720000 0.0505370000 0.1036250000
C 2.8391700000 5.0038900000 15.8508600000 0.1264490000 -0.1769690000 -0.2658200000
C 5.9138100000 5.0057500000 15.8532500000 0.1195380000 -0.1886980000 -0.2880780000
C 5.9633500000 10.2910300000 15.7320200000 -0.1129320000 0.1228700000 0.1795520000
C 9.0372000000 10.2912100000 15.7284600000 -0.1194340000 0.1325260000 0.2095780000
C 1.3165300000 2.3178800000 15.8016700000 -0.0990520000 0.1756870000 0.0643880000
C 4.3878900000 2.3178700000 15.8044900000 -0.0846430000 0.1694500000 0.0635100000
C 4.4041600000 7.6084900000 15.8002200000 0.0224600000 0.4731530000 -0.1805650000
C 7.4781300000 7.6110200000 15.7996400000 0.0294380000 0.4505920000 -0.1725600000
C 1.3760900000 0.5161700000 18.2316200000 -0.1398190000 -0.0107740000 0.3310700000
C 4.4511600000 0.5131300000 18.2317000000 -0.1672950000 0.0160030000 0.3456520000
C 4.4590200000 5.8573000000 18.3429800000 -0.1895390000 0.3263030000 0.1928030000
C 7.5353400000 5.8599800000 18.3444100000 -0.1844860000 0.3076510000 0.1782150000
C 2.9814300000 8.5086300000 18.2517300000 -0.1274310000 0.4114030000 0.3239670000
C 6.0538300000 8.5016100000 18.2534000000 -0.1324720000 0.4503870000 0.3155270000
C 2.7841200000 3.2055700000 18.3091300000 0.1659110000 -0.0469880000 0.2623100000
C 5.8590900000 3.2077300000 18.3059200000 0.1602520000 -0.0506940000 0.2813720000
H 1.2891100000 0.7301100000 7.1653100000 0.0116830000 0.0096150000 0.0101590000
H 5.9526900000 3.3725100000 7.2750700000 0.0045720000 -0.0019390000 -0.0012680000
H 7.5128800000 5.9761100000 7.2895700000 -0.0093440000 -0.0140170000 -0.0239280000
H 2.8512800000 8.6503700000 7.1614800000 -0.0032160000 0.0022500000 0.0101280000
H 2.8809900000 3.3742600000 7.2750100000 0.0025180000 -0.0030100000 -0.0015440000
H 5.9271300000 8.6509400000 7.1622700000 -0.0039790000 0.0014200000 0.0101530000
H 4.3643700000 0.7309100000 7.1648300000 0.0116420000 0.0093100000 0.0101530000
H 4.4369500000 5.9731400000 7.2884400000 -0.0092830000 -0.0133390000 -0.0234830000
168
lattice="6.1459999080 0.0000000000 0.0000000000 3.0730000890 10.6451859210 0.0000000000 0.0000000000 0.0000000000 41.7204780580" Properties=species:S:1:pos:R:3:force:R:3 energy=-1131.8062286300 virial="17.8603408626 -12.8146246707 -7.3748332876 -12.8146246707 -5.3187458497 7.0704731955 -7.3748332876 7.0704731955 12.6387040263"
Ga 2.6783400000 7.4574000000 24.4828600000 0.2251630000 -1.9475110000 -0.5922490000
Ga 5.7645100000 7.4775200000 24.4865700000 0.0968900000 -2.0759890000 -0.8249720000
Ga 2.9794500000 1.4554500000 25.9663600000 -0.0737890000 0.1459330000 -0.4481280000
Ga 6.0691700000 1.4751000000 25.9318100000 -0.3388520000 0.1775650000 -0.0827080000
Ga 2.6026500000 8.8552300000 21.7086200000 0.2715570000 0.0265490000 -0.3483180000
Ga 5.6750200000 8.8674200000 21.6988100000 0.3542950000 -0.0324850000 -0.2448260000
Ga 5.9661200000 3.2907700000 23.2194600000 -0.2060260000 2.6506110000 0.4412070000
Ga 2.8759500000 3.2772800000 23.2084900000 0.1565250000 2.7527380000 0.7630910000
Ga 4.4051300000 9.1708200000 26.5969200000 -1.0451400000 1.3330970000 -0.5060650000
Ga 7.4645900000 9.1974800000 26.5706000000 -0.8445360000 1.5027880000 -0.3466320000
Ga 6.6295300000 4.7972100000 26.2877400000 0.3691130000 -0.3186110000 -0.7974110000
Ga 3.5733600000 4.7779800000 26.3152200000 -0.4232880000 0.0134940000 -1.1842290000
Ga 4.4304400000 5.9214600000 21.5928400000 -0.1423160000 -0.4331650000 0.3136470000
Ga 7.4998700000 5.9068400000 21.5956800000 -0.1609830000 -0.2037450000 0.1702540000
Ga 1.0364700000 0.8942900000 21.8908000000 0.9811900000 -0.8407710000 -1.8355520000
Ga 4.1179000000 0.9066900000 21.8903000000 0.9592410000 -0.9449550000 -1.8415460000
Ga 6.0162100000 7.7346700000 31.8631700000 0.4820010000 -0.2331090000 0.8454870000
Ga 2.9584700000 7.5939600000 31.6755200000 -0.0856540000 0.7415290000 1.4049890000
Ga 4.1833900000 2.4080200000 31.9269200000 -0.3869210000 -0.3870430000 1.2908170000
Ga 1.1353000000 2.3726700000 31.8710100000 -0.9854560000 -0.5830740000 1.7316840000
Ga 8.5956400000 10.1601400000 30.9809200000 0.2245200000 1.2557400000 0.3599460000
Ga 5.5327800000 10.1639200000 30.7975800000 0.2475220000 0.4975510000 0.7244000000
Ga 4.3354800000 5.1114200000 30.7339000000 -1.0112490000 -0.5573440000 0.3772830000
Ga 7.3799700000 5.1445100000 30.7241400000 -0.9658900000 -0.7412410000 0.7793650000
Ga 8.9089000000 10.6165200000 34.2508500000 0.0458150000 -0.0372960000 -0.5790770000
Ga 2.7778100000 0.1881300000 34.1990300000 -0.0333130000 -0.3775780000 -0.3527640000
Ga 4.2753900000 5.6471400000 34.0346600000 -0.1375700000 -0.7860860000 -0.5295510000
Ga 7.2792200000 5.4924800000 34.0291600000 0.2570440000 -0.3063080000 -0.2955080000
Ga 5.5427400000 7.3848300000 28.5550400000 0.0728260000 -0.7985460000 0.6683360000
Ga 2.4837100000 7.5102700000 28.5417600000 -0.4055610000 -0.1235060000 0.8324940000
Ga 4.6497500000 2.7717500000 28.4741700000 1.0759370000 -0.6653540000 -1.3766960000
Ga 1.5935600000 2.8130600000 28.4523000000 0.2271280000 -0.6165860000 -0.4462440000
O 5.9201200000 5.1230200000 20.5495800000 0.5298330000 0.5655120000 0.6144990000
O 2.8416800000 5.1066300000 20.5557800000 0.5687680000 0.6445870000 0.6346730000
O 5.9045400000 10.4242400000 20.4753800000 0.0000760000 -0.5766920000 0.1088600000
O 8.9873500000 10.4114800000 20.4690400000 -0.0519110000 -0.5553170000 0.2143240000
O 2.8369900000 9.5594500000 27.4260900000 -0.3017880000 -0.1113260000 0.5238860000
O 5.9156200000 9.6625000000 27.3766300000 -0.3511510000 -0.0114030000 0.6720920000
O 5.0098000000 4.3151900000 27.4231600000 -0.5150570000 0.0340910000 -0.0799450000
O 1.9046600000 4.3869900000 27.4792900000 -0.3478020000 -0.0873150000 -0.3522270000
O 4.2158900000 8.3833500000 24.9119400000 0.0993220000 0.2027530000 -0.0626900000
O 7.2932500000 8.4096900000 24.8995800000 0.1437190000 0.0580020000 -0.2533180000
O 6.3760900000 3.1302700000 25.0679800000 -0.0066130000 0.8633460000 0.4826470000
O 3.2847900000 3.1175800000 25.0895600000 -0.0430130000 0.9440180000 0.2613780000
O 2.8849100000 6.9907700000 22.5851000000 -0.3670240000 0.3297220000 0.9164510000
O 5.9715000000 7.0089400000 22.5735500000 -0.5245370000 0.2683950000 1.0513280000
O 2.6740100000 1.5300000000 22.8280600000 -0.8834690000 -0.4495350000 0.0645700000
O 5.7422700000 1.5424000000 22.8265600000 -0.7116800000 -0.4517050000 0.0837310000
O 7.2284700000 9.6578900000 22.5000500000 0.3242490000 0.2721700000 -0.0225170000
O 4.1507500000 9.6551900000 22.5044500000 0.3519030000 0.2056900000 0.0182300000
O 4.4207300000 4.3696000000 22.7163200000 -0.0426930000 -1.2770950000 0.9196320000
O 1.3491100000 4.3981800000 22.7509800000 -0.0038290000 -1.4229940000 0.8553370000
O 5.4511800000 5.8957100000 25.4185300000 -0.1572860000 0.1670740000 -0.2650460000
O 2.3590700000 5.9378800000 25.5024300000 0.1573610000 -0.2644690000 -0.3199090000
O 4.5113600000 0.5813100000 25.5683600000 0.5863340000 -0.9076290000 0.4023570000
O 1.4371000000 0.5847600000 25.5352800000 0.3462060000 -0.9764300000 0.3943840000
O 3.9783100000 7.2924400000 27.5487600000 1.9419190000 -0.5714820000 0.3675520000
O 7.0570600000 7.3585600000 27.5462900000 1.3439260000 -0.5310060000 0.4136640000
O 3.1474600000 1.8830100000 27.8433900000 -0.5499730000 0.3264840000 0.2839910000
O 6.2312900000 1.8634200000 27.8584400000 -0.3925080000 0.4377810000 0.0809230000
O 4.5098100000 7.6320600000 20.5868900000 -0.0803850000 0.5000320000 -0.3668550000
O 7.5795800000 7.6243500000 20.5909200000 0.0262070000 0.5238350000 -0.4225290000
O 4.4410100000 2.1389000000 20.4788300000 -0.3226970000 0.1425740000 0.8003820000
O 1.3655000000 2.1319600000 20.4782500000 -0.3332570000 0.1716500000 0.8826630000
O 2.9756700000 9.3111300000 32.5836400000 -0.5263510000 -0.3244830000 -0.0282920000
O 5.9905700000 9.4157200000 32.5575600000 -0.4288930000 0.2705420000 -0.2100360000
O 3.9215800000 4.3991400000 32.4418300000 0.0241470000 -1.5144860000 -0.3848470000
O 7.0324700000 4.4002500000 32.4605500000 -0.1705530000 -1.5938770000 -0.9096570000
O 5.9873000000 8.3159900000 30.0981200000 -0.4914410000 2.2677180000 0.0456950000
O 2.9102200000 8.4959900000 30.1021600000 -0.4186340000 1.1893710000 -1.0596550000
O 4.4382500000 3.2460900000 30.1599200000 -0.1581600000 0.5412250000 1.5617770000
O 1.4044300000 3.2642600000 30.2022100000 0.0623000000 0.3712490000 0.2925660000
O 0.9203800000 0.5693600000 30.7931600000 0.8484300000 -0.1230990000 -0.8115230000
O 3.9969200000 0.5815200000 30.8358900000 0.6609720000 -0.2684430000 -0.9976360000
O 5.7714500000 5.8084200000 29.8497100000 0.7578870000 -0.0555640000 -0.3017720000
O 2.6505000000 5.9533400000 29.9175600000 1.5773170000 0.0061450000 0.0096650000
O 4.4943300000 6.7104700000 32.1715500000 0.3089110000 0.5768450000 -0.0216180000
O 7.5797700000 6.7609900000 32.2475800000 -0.9189250000 0.3547950000 -0.0901300000
O 2.5888100000 1.7026300000 32.9440500000 0.2105620000 1.2016930000 -1.3131170000
O 5.6684700000 1.7094800000 32.8982100000 0.3301720000 0.7675430000 -1.1570540000
Si 5.9352700000 10.4424200000 8.9753100000 -0.1141070000 -0.1590000000 -0.5097410000
Si 9.0086600000 10.4424300000 8.9753900000 -0.1180370000 -0.1570880000 -0.5048270000
Si 2.8760900000 5.0753800000 8.8688500000 -0.2656850000 0.3341650000 0.4357620000
Si 5.9488800000 5.0748800000 8.8675500000 -0.2681380000 0.3393590000 0.4568970000
Si 1.3713000000 2.4708500000 8.9319700000 -0.2621580000 -0.5470780000 0.0083480000
Si 4.4440800000 2.4707800000 8.9318800000 -0.2624910000 -0.5476090000 0.0132450000
Si 4.2944600000 7.7481700000 8.9182900000 0.6014590000 0.0711620000 -0.1853720000
Si 7.3673000000 7.7468300000 8.9205400000 0.6024760000 0.0915190000 -0.2089370000
Si 2.8346500000 1.5228500000 11.4563100000 0.1939550000 -0.4044950000 -0.0793340000
Si 5.9079800000 1.5242200000 11.4567100000 0.1877760000 -0.4006090000 -0.1102690000
Si 2.8448600000 6.7871100000 11.4036300000 -0.1819420000 0.0974960000 0.2647350000
Si 5.9163300000 6.7876200000 11.4040300000 -0.1645530000 0.0869810000 0.2403790000
Si 4.3752300000 9.4659200000 11.4192200000 0.0948310000 -0.1177440000 -0.0244400000
Si 7.4491000000 9.4660600000 11.4176500000 0.0652720000 -0.1131510000 0.0087480000
Si 1.2773100000 4.1511400000 11.4804900000 0.2424280000 0.2495590000 -0.2930340000
Si 4.3484600000 4.1501000000 11.4813800000 0.2818700000 0.2561920000 -0.3073860000
Si 5.9372400000 10.2628700000 13.8795000000 0.0111310000 0.3420430000 0.3595610000
Si 9.0110300000 10.2649600000 13.8747200000 -0.0151860000 0.3268600000 0.4363550000
Si 2.8214900000 5.0372100000 13.9666200000 0.2046760000 -0.7220690000 0.0085960000
Si 5.8962700000 5.0383800000 13.9638000000 0.1543370000 -0.7320550000 0.0521940000
Si 1.3231600000 2.3080900000 13.9745100000 -0.1165550000 0.4476710000 -0.4775510000
Si 4.3965600000 2.3092700000 13.9753700000 -0.1407300000 0.4474860000 -0.4984930000
Si 4.3971200000 7.6327200000 13.9391300000 0.0466850000 0.2115270000 0.0002170000
Si 7.4695600000 7.6317900000 13.9364900000 0.0557830000 0.2334030000 0.0164800000
Si 2.8246700000 3.2032200000 16.3974600000 0.3518840000 -0.1013040000 0.5977700000
Si 5.9000800000 3.2050300000 16.3957100000 0.3181280000 -0.1150910000 0.6096910000
Si 2.9167000000 8.4779900000 16.4578700000 -0.1142990000 0.5273920000 -0.4312710000
Si 5.9931600000 8.4757400000 16.4656600000 -0.1494010000 0.5544010000 -0.5487620000
Si 4.4068400000 5.8659500000 16.4865400000 0.0130240000 -0.1522920000 -0.5016420000
Si 7.4828300000 5.8660200000 16.4853600000 -0.0185690000 -0.1635150000 -0.4824310000
Si 1.3788300000 0.4685800000 16.3427900000 -0.3627850000 0.7950660000 0.2496680000
Si 4.4496300000 0.4714200000 16.3381000000 -0.3083460000 0.7697660000 0.3504700000
Si 5.9954000000 10.3955900000 18.8030600000 -0.1890910000 -0.6460950000 1.0812090000
Si 9.0680100000 10.3874100000 18.7989400000 -0.2144340000 -0.6027500000 1.0704230000
Si 2.9081600000 4.9610300000 18.9000000000 -0.2987640000 0.3710090000 0.1697010000
Si 5.9813600000 4.9677700000 18.8908200000 -0.2786920000 0.2967750000 0.3017560000
Si 4.5159000000 7.6551600000 18.9025700000 -0.3929270000 0.4530540000 0.0533310000
Si 7.5853400000 7.6504000000 18.9070100000 -0.2666400000 0.4934250000 0.0551390000
Si 1.3061900000 2.3063800000 18.8786300000 0.2752730000 -0.0499650000 0.4811390000
Si 4.3822900000 2.3102400000 18.8784400000 0.2600860000 -0.1038500000 0.4786160000
C 2.9107800000 3.3220300000 8.2867500000 -0.1943710000 -0.1299070000 0.1569250000
C 5.9836000000 3.3212200000 8.2862600000 -0.1881350000 -0.1244260000 0.1561320000
C 2.7611200000 8.6706200000 8.3594000000 0.2671210000 -0.1439490000 -0.1304650000
C 5.8351700000 8.6707100000 8.3589600000 0.2632570000 -0.1490170000 -0.1273940000
C 1.3358100000 0.6897900000 8.3761300000 -0.0984510000 -0.1758730000 -0.1110580000
C 4.4089700000 0.6897200000 8.3771600000 -0.1034660000 -0.1781450000 -0.1174290000
C 4.4018700000 5.9821100000 8.2829200000 -0.0773690000 0.0151160000 0.1425470000
C 7.4752600000 5.9819200000 8.2836700000 -0.0829690000 0.0112270000 0.1396940000
C 5.9139000000 10.3865100000 10.8291500000 0.0286210000 -0.0746820000 0.1684940000
C 8.9879000000 10.3874400000 10.8295300000 0.0214530000 -0.0763540000 0.1661620000
C 2.8233100000 5.0167600000 10.7822300000 0.0403620000 0.2189520000 0.0748790000
C 5.8959400000 5.0163200000 10.7825500000 0.0366360000 0.2220760000 0.0661230000
C 1.3057300000 2.4060200000 10.8216800000 0.0071390000 -0.0627910000 -0.0806570000
C 4.3778600000 2.4049400000 10.8215300000 0.0133320000 -0.0454830000 -0.0756190000
C 4.3699200000 7.6876700000 10.7926700000 -0.0553940000 0.1225360000 -0.0812710000
C 7.4434100000 7.6869100000 10.7937300000 -0.0608540000 0.1221470000 -0.0763850000
C 2.8618700000 1.4367500000 13.3350100000 -0.0955040000 -0.0691670000 -0.1043300000
C 5.9347300000 1.4384600000 13.3334300000 -0.1001760000 -0.0751560000 -0.0901320000
C 2.8562700000 6.7750700000 13.3074400000 -0.0301280000 -0.0328490000 -0.1302320000
C 5.9286100000 6.7762500000 13.3065300000 -0.0342280000 -0.0404830000 -0.1340520000
C 4.3958400000 9.3884100000 13.2866600000 0.0688390000 0.2187590000 -0.0335500000
C 7.4687400000 9.3883300000 13.2863200000 0.0655310000 0.2283340000 -0.0408450000
C 1.2846100000 4.1166400000 13.3817400000 0.1506060000 0.0432820000 -0.6080380000
C 4.3573500000 4.1174700000 13.3817100000 0.1457310000 0.0387790000 -0.5980900000
C 2.8613500000 4.9966400000 15.8402800000 0.0085470000 -0.0591980000 -0.1412440000
C 5.9346600000 4.9989900000 15.8390600000 0.0031460000 -0.0653610000 -0.1314580000
C 5.9808800000 10.2243900000 15.7546500000 -0.0535670000 0.1966080000 -0.1547600000
C 9.0537100000 10.2280600000 15.7521100000 -0.0522870000 0.1735650000 -0.1626300000
C 1.2992800000 2.2949900000 15.8201800000 0.1355280000 -0.1255990000 -0.4458830000
C 4.3727200000 2.2978700000 15.8206800000 0.1188410000 -0.1428590000 -0.4614240000
C 4.4416900000 7.6214300000 15.8295300000 -0.0117660000 -0.1767760000 -0.1366740000
C 7.5141900000 7.6193000000 15.8269600000 -0.0214700000 -0.1476030000 -0.1300330000
C 1.3797900000 0.5595000000 18.1878400000 -0.1023000000 -0.0495720000 -0.0656550000
C 4.4541100000 0.5624000000 18.1866800000 -0.1055950000 -0.0675110000 -0.0487260000
C 4.4439700000 5.8946300000 18.3550400000 -0.0588310000 -0.4053110000 -0.4844760000
C 7.5201500000 5.8925500000 18.3534800000 -0.0670990000 -0.3794870000 -0.4903600000
C 2.9688000000 8.5564400000 18.3336400000 -0.1987200000 -0.2334480000 -0.1706740000
C 6.0449100000 8.5621400000 18.3384100000 -0.2092630000 -0.2676960000 -0.1579100000
C 2.8456400000 3.2236800000 18.2773900000 0.1570740000 -0.1103850000 0.2441020000
C 5.9198100000 3.2264800000 18.2758700000 0.1556280000 -0.0997170000 0.2480530000
H 1.3409000000 0.6656100000 7.2707600000 -0.0122410000 -0.0136640000 -0.0185270000
H 5.9850100000 3.2678700000 7.1835700000 -0.0271130000 0.0021490000 0.0056340000
H 7.4632900000 5.9891700000 7.1783500000 -0.0046970000 -0.0007120000 -0.0006910000
H 2.7642900000 8.6980600000 7.2537500000 0.0218380000 -0.0282950000 -0.0231850000
H 2.9119900000 3.2701300000 7.1840600000 -0.0266990000 0.0006660000 0.0034650000
H 5.8406900000 8.6971400000 7.2533200000 0.0215690000 -0.0270480000 -0.0233900000
H 4.4144900000 0.6647200000 7.2717800000 -0.0130460000 -0.0127650000 -0.0193650000
H 4.3882400000 5.9883100000 7.1775800000 -0.0037200000 -0.0012400000 0.0000550000
168
lattice="6.1459999080 0.0000000000 0.0000000000 3.0730000890 10.6451859210 0.0000000000 0.0000000000 0.0000000000 41.7204780580" Properties=species:S:1:pos:R:3:force:R:3 energy=-1132.4800898800 virial="8.0654828132 -12.1104309932 -6.8335101660 -12.1104309932 -5.3274345509 -21.7137798460 -6.8335101660 -21.7137798460 -1.2276282966"
Ga 2.6662300000 7.3364900000 24.5460900000 -0.8528560000 0.0574550000 -1.0150180000
Ga 5.7216600000 7.3363000000 24.5236800000 -0.5173890000 0.1169630000 -0.7746590000
Ga 2.9602500000 1.4353200000 25.9548000000 -0.6407780000 0.0800090000 -0.0112440000
Ga 6.0494600000 1.4783400000 25.9626100000 -0.2471900000 -0.1739850000 -0.4938490000
Ga 2.6170600000 8.8627400000 21.7192600000 0.9390960000 -0.4615910000 -1.0261620000
Ga 5.6914700000 8.8628100000 21.7161800000 0.8964140000 -0.3768650000 -1.0892290000
Ga 5.8818300000 3.5302300000 23.5222800000 -0.0960410000 -1.5332800000 -1.7771200000
Ga 2.8098400000 3.5260200000 23.5276800000 -0.1770280000 -1.4549700000 -1.7225890000
Ga 4.3975300000 9.3279300000 26.6659500000 -0.2344410000 -0.6487920000 -0.5457490000
Ga 7.4128400000 9.3849700000 26.6146300000 -0.6871310000 -0.9002780000 -0.6388000000
Ga 6.6695700000 4.9358100000 26.2436700000 -0.3923340000 -0.6509940000 0.6727080000
Ga 3.5442600000 4.9065900000 26.2432700000 0.4548860000 -0.8404570000 1.2008600000
Ga 4.3604700000 6.0074800000 21.7076200000 -0.4004660000 -0.5080980000 -1.1637640000