84
lattice="3.0899999140 0.0000000000 0.0000000000 0.0000000000 11.2700004580 0.0000000000 0.0000000000 0.0000000000 39.2999992370" Properties=species:S:1:pos:R:3:force:R:3 energy=-341.8678472200 virial="119.9122898190 0.8504256569 8.3824804189 0.8504256569 107.0508969542 -13.7509071624 8.3824804189 -13.7509071624 161.8119043926"
Ga 2.6526300000 10.0682000000 9.3948000000 -0.0719390000 0.4675760000 0.0407950000
Ga 2.7472900000 4.4990100000 9.3689900000 -0.9849120000 -0.1741160000 2.2550380000
Ga 1.1299900000 1.6529000000 9.3241800000 -0.7116250000 -2.9415730000 2.5905210000
Ga 1.1310400000 7.2710200000 9.2986800000 -1.5489370000 -3.7523100000 5.3584290000
Ga 2.8007700000 0.6006100000 11.7414000000 0.8898810000 0.3137790000 0.1923910000
Ga 2.6214400000 6.2449200000 11.8850000000 0.5322650000 -0.2782550000 -2.3739160000
Ga 1.2452800000 9.2094200000 11.8344000000 0.7835330000 -1.5041830000 -0.5156160000
Ga 1.3027700000 3.5150300000 11.8587000000 -2.5474690000 -1.3645810000 0.4928670000
Ga 2.7412300000 4.4525200000 14.3185000000 -0.9489500000 -0.7387030000 0.1113000000
Ga 2.7588800000 9.9865800000 14.4387000000 -1.7013630000 0.7415240000 0.1363630000
Ga 1.4132100000 1.6148400000 14.3267000000 -0.1311960000 -2.2810110000 0.6528380000
Ga 0.9085200000 7.4588900000 14.3316000000 0.9317670000 -1.3399620000 0.3120910000
Ga 2.8670700000 2.6027400000 16.8517000000 -0.0896900000 1.6534610000 -0.8106900000
Ga 2.7938900000 8.2121700000 16.7809000000 -1.8416760000 0.3485030000 -0.8038650000
Ga 1.3233000000 11.1306000000 16.8099000000 -0.9624930000 0.5570090000 0.0225960000
Ga 1.2106300000 5.5206200000 16.9162000000 1.3587870000 0.1940700000 -1.2497320000
Ga 2.7087100000 4.3519600000 19.2766000000 -0.3368180000 0.0499460000 2.1211070000
Ga 2.9601900000 9.9528400000 19.1831000000 -0.1670980000 0.7669290000 2.6830530000
Ga 1.5646900000 7.2196000000 19.4233000000 -0.1724460000 -0.2974410000 0.8719660000
Ga 1.1704300000 1.7336600000 19.4047000000 -0.1417390000 -1.9207660000 3.0761290000
O 2.6545600000 2.5749400000 8.7288200000 1.9328530000 -2.2804940000 14.8595930000
O 2.7830700000 8.1675800000 8.8561600000 10.4382580000 4.1816210000 8.7356930000
O 1.0839300000 11.0258000000 8.5075900000 0.2063230000 -0.0683340000 -1.1328110000
O 1.0928700000 5.3850200000 8.6344200000 0.3851870000 -1.5601920000 8.6215370000
O 2.7023100000 4.3021500000 11.1899000000 2.8192570000 0.0027630000 1.7859250000
O 2.8279700000 10.0099000000 11.2620000000 -0.2383330000 0.1814280000 2.1430680000
O 1.3280200000 1.6006100000 11.2175000000 -0.3866560000 1.6502920000 2.3954430000
O 1.2574300000 7.3898700000 11.2105000000 -0.7676640000 1.3018520000 0.6873790000
O 2.8883800000 0.5153100000 13.7076000000 0.5600550000 0.2124620000 -0.7304780000
O 2.9060900000 6.1703500000 13.6585000000 -0.4262780000 0.4295920000 1.0672680000
O 1.0703800000 9.1105600000 13.6796000000 1.5975880000 2.2955790000 -1.7867940000
O 1.0243700000 3.2509200000 13.7135000000 -0.1752340000 0.8123960000 -0.6589950000
O 2.7872200000 10.1230000000 16.3114000000 1.1917200000 -0.4711280000 1.2959880000
O 2.9057300000 4.4944700000 16.2249000000 -0.7998230000 -0.5489880000 0.3986850000
O 1.3138900000 1.7646300000 16.2815000000 0.1708220000 -0.2543410000 -0.0075160000
O 1.1242600000 7.2816000000 16.1493000000 1.3155950000 -1.1270330000 0.8901820000
O 1.1280500000 5.3143500000 18.7197000000 0.1343940000 0.3541450000 1.0430660000
O 1.4103200000 11.1010000000 18.7379000000 -0.1769810000 0.9654250000 -0.2926130000
O 0.0280000000 8.1461100000 18.6026000000 0.5390820000 -0.5847940000 0.2861020000
O 2.7013600000 2.4669300000 18.7016000000 0.1480640000 0.3320160000 -0.6175940000
Si 1.2437700000 3.7397100000 22.1920000000 0.0112330000 -0.1668290000 0.5036110000
Si 1.6924100000 9.1880000000 21.9624000000 -0.1722430000 0.1849430000 0.4505790000
Si 1.2781600000 2.4523300000 28.1377000000 0.0711830000 -0.3176530000 0.0945600000
Si 1.8221500000 8.2237500000 28.1418000000 0.0469520000 -0.4124240000 0.4042670000
Si 1.8305800000 0.1143000000 25.9782000000 -0.1532350000 0.3641980000 0.2743070000
Si 1.5432000000 5.5293300000 26.0291000000 0.1390360000 0.1280970000 -0.0123520000
Si 0.3952000000 4.0043200000 32.4410000000 -0.1058240000 0.1735890000 -0.8834960000
Si 0.4437400000 9.6322500000 32.5873000000 -0.2023940000 0.1285310000 -1.0445070000
Si 2.8517300000 2.7548300000 25.1405000000 -0.1013580000 -0.2542040000 0.0758540000
Si 0.3403300000 8.5636900000 25.1556000000 -0.0480220000 -0.5008000000 -0.1804870000
Si 1.6854700000 1.1865000000 31.3184000000 0.0131000000 -0.0042790000 -0.1317910000
Si 1.6026200000 6.7957200000 31.2788000000 -0.1226140000 0.0825410000 -0.0326910000
Si 0.2334500000 0.8584300000 22.7264000000 0.2992890000 0.3677610000 0.5840410000
Si 2.5509200000 6.5831300000 22.8126000000 -0.1685150000 0.3249580000 0.6881640000
Si 2.9517200000 5.2311400000 29.0314000000 0.0594760000 0.1011130000 -0.0684710000
Si 0.1848300000 10.9292000000 29.0671000000 -0.0542410000 0.0043020000 -0.0036890000
C 2.5379600000 2.7664600000 7.6664400000 -2.1218360000 3.8173750000 -21.0316560000
C 2.0430900000 8.0308300000 8.0068500000 -8.8476930000 -0.6359530000 -14.7402740000
C 1.1413900000 5.5185400000 7.5291300000 0.4443150000 1.5756250000 -15.8819940000
C 1.4411400000 0.1130100000 7.3852500000 -0.1980090000 1.0952830000 -3.8515720000
H 0.9117300000 5.4613200000 22.8876000000 0.0754070000 -0.1164250000 -0.1374160000
H 1.7591900000 11.0329000000 22.6276000000 -0.0696490000 -0.3984020000 -0.0742330000
H 1.4392400000 4.0843500000 28.9716000000 0.0072150000 -0.1465880000 -0.0371350000
H 1.7413200000 9.7143900000 29.2656000000 -0.0147770000 0.0812230000 -0.2938640000
H 1.3652100000 3.8647900000 25.1427000000 -0.0518800000 0.3363410000 0.1123590000
H 1.8932400000 9.6282700000 25.3018000000 0.0591150000 0.2112640000 -0.0508210000
H 0.1437700000 2.3394100000 31.5474000000 0.0317380000 0.2729710000 -0.0499780000
H 0.1269200000 7.9553300000 31.6772000000 0.1457600000 0.4662530000 0.0397020000
H 0.3514600000 11.1265000000 27.1786000000 -0.0503150000 -0.1907380000 -0.0287940000
H 0.0543700000 5.3926500000 27.1014000000 -0.1083430000 -0.0611380000 0.1974180000
H 2.6388100000 4.2594100000 20.8753000000 0.0151260000 0.0034040000 0.4056120000
H 0.1785400000 9.8382800000 20.9001000000 0.1026810000 0.0453250000 -0.0389460000
H 2.8833000000 2.5312800000 27.0704000000 0.0730820000 0.2406430000 -0.2605440000
H 0.2849900000 8.0995000000 27.1393000000 -0.0627670000 0.2330040000 -0.3984240000
H 1.0901100000 1.7625900000 21.0704000000 -0.1667940000 -0.2205460000 0.0537370000
H 1.8611100000 7.3254500000 20.9839000000 0.1481560000 -0.2114730000 0.7183750000
H 0.0817300000 11.1427000000 31.2222000000 0.1848360000 -0.5690340000 0.1806450000
H 0.2116900000 5.3924000000 31.1027000000 0.0848880000 -0.7150610000 0.1113340000
H 2.7971500000 2.7636400000 23.1265000000 -0.0715540000 0.1580850000 0.1162080000
H 0.4390600000 8.3632800000 23.1274000000 0.0802260000 0.2060880000 0.3059560000
H 0.3983600000 0.9683300000 24.8623000000 0.1233170000 -0.4696860000 -0.4474750000
H 2.0021900000 6.8891400000 24.8091000000 0.0570630000 -0.1875940000 -0.2834120000
H 1.5920500000 1.1335800000 29.3639000000 0.0100620000 0.2918220000 0.4202740000
H 1.6413500000 6.6847400000 29.3320000000 0.0026960000 0.3599280000 0.0802240000
84
lattice="3.0899999140 0.0000000000 0.0000000000 0.0000000000 11.2700004580 0.0000000000 0.0000000000 0.0000000000 39.2999992370" Properties=species:S:1:pos:R:3:force:R:3 energy=-340.0098895900 virial="105.6456534860 0.5455410928 12.5150278725 0.5455410928 116.6482516439 -7.1975205755 12.5150278725 -7.1975205755 173.8015163553"
Ga 2.6597600000 10.0074000000 9.2891900000 -1.6144250000 -0.8934540000 1.3265880000
Ga 2.6078500000 4.3399400000 9.3037500000 1.3456280000 1.1488450000 2.8890560000
Ga 1.1845200000 1.6263900000 9.3113900000 0.5707960000 -0.8997820000 2.0227310000
Ga 1.1731300000 7.2234000000 9.4097900000 -1.0670840000 -0.2397340000 3.3455050000
Ga 2.8996200000 0.7685900000 11.8838000000 1.4190650000 -1.3643130000 -0.2369740000
Ga 2.7169300000 6.2689700000 11.7797000000 -2.1906910000 -2.5190850000 0.2813000000
Ga 1.2704900000 9.0224200000 11.7455000000 1.0105110000 1.3382050000 -0.1173100000
Ga 1.2198900000 3.3144700000 11.8804000000 -1.6200830000 0.8676170000 -0.1114600000
Ga 2.8095700000 4.4268800000 14.4484000000 -1.2590160000 0.8426590000 -2.2015360000
Ga 2.6920100000 10.1820000000 14.3998000000 0.4615080000 -4.6315320000 2.1021260000
Ga 1.4237700000 1.5983600000 14.3304000000 0.0725260000 -0.6616850000 -1.9407790000
Ga 1.0148100000 7.2151500000 14.1651000000 -3.7486090000 2.6310840000 2.7722100000
Ga 2.9396900000 2.6769100000 16.8159000000 -0.0946390000 -1.0598460000 -0.2951720000
Ga 2.5790300000 8.3008300000 16.8701000000 1.3075500000 -0.4029950000 -0.7679340000
Ga 1.1986100000 11.1141000000 17.0197000000 0.5083850000 0.6575380000 -0.8462230000
Ga 1.2319900000 5.3698800000 16.9256000000 -0.3578040000 1.7508280000 -3.6181070000
Ga 2.7868100000 4.5305900000 19.3466000000 1.4888680000 -1.6706320000 3.1613740000
Ga 0.0105000000 9.9348900000 19.2349000000 -1.8732430000 0.4344910000 2.8445440000
Ga 1.4756500000 7.2816800000 19.4637000000 -1.3930400000 -1.0183500000 2.3207700000
Ga 1.2573600000 1.5400700000 19.4660000000 0.8380720000 3.0395250000 2.8836360000
O 2.7555600000 2.5533200000 8.7822300000 5.5412830000 -5.2032330000 16.1418230000
O 2.6377500000 8.1355600000 8.6641100000 2.6057180000 -1.0117680000 6.9541620000
O 0.9923900000 11.0923000000 8.7501400000 4.8041890000 1.3870590000 7.7904640000
O 1.2850200000 5.4979200000 8.5588500000 -0.5804920000 -0.1376100000 9.0953010000
O 2.5865500000 4.3412300000 11.2336000000 1.0889410000 0.7929620000 2.0246290000
O 2.9322300000 10.0867000000 11.1618000000 -0.3232320000 1.6325220000 2.1984130000
O 1.4643800000 1.5997900000 11.1708000000 -0.8932650000 -0.3447790000 -0.1023050000
O 1.0574900000 7.1969800000 11.3515000000 1.7176630000 0.2233250000 1.4673510000
O 2.9514200000 0.4578300000 13.7599000000 1.0728620000 3.2067580000 -0.7316640000
O 2.3329700000 6.2557300000 13.7277000000 3.5091480000 -2.4846250000 -1.8158400000
O 1.3566600000 9.0773700000 13.6796000000 -0.9657730000 0.5375010000 -0.4723050000
O 1.0248500000 3.3222800000 13.7425000000 1.2043670000 0.6256070000 -0.0374260000
O 2.7945900000 10.0972000000 16.3791000000 -0.4724030000 -0.0269480000 -0.7139600000
O 2.7626100000 4.5308700000 16.2517000000 -0.0655290000 0.3267010000 1.8830480000
O 1.3855500000 1.6611800000 16.1050000000 0.1379620000 -0.1398720000 2.0890970000
O 1.1706200000 7.2807300000 16.3011000000 -1.3056990000 -0.8788610000 -0.3248220000
O 1.3291900000 5.3148000000 18.6461000000 -1.1044180000 0.7683940000 1.6080520000
O 1.3359100000 11.1242000000 18.9524000000 2.1244510000 -0.8120320000 -0.2752750000
O 2.9087700000 8.1889700000 18.7225000000 0.9935810000 -1.4357460000 -1.4297780000
O 3.0163600000 2.6226800000 18.6652000000 -1.0196280000 0.3752670000 0.5116770000
Si 1.1799700000 3.7110000000 22.1482000000 0.1099450000 -0.2908060000 0.4616160000
Si 1.7993300000 9.2218600000 22.0157000000 -0.2163290000 -0.0362360000 0.6998570000
Si 1.2713700000 2.4961700000 28.1196000000 0.0505570000 -0.3001720000 0.3370900000
Si 1.8824600000 8.2048200000 28.0921000000 -0.1025380000 -0.2266210000 0.2174600000
Si 1.8537800000 0.1140900000 25.9382000000 -0.0797560000 0.3609150000 0.2909140000
Si 1.4827900000 5.6150700000 25.9575000000 0.1683940000 0.2695430000 0.2022810000
Si 0.3160200000 3.9971700000 32.5333000000 -0.1083270000 0.1507640000 -0.9737730000
Si 0.4080500000 9.6285200000 32.5356000000 -0.1745890000 0.2122280000 -1.0212050000
Si 2.8212200000 2.8120600000 25.1514000000 -0.1846070000 -0.4252250000 0.0414090000
Si 0.3528900000 8.5767600000 25.0944000000 -0.1740080000 -0.4472520000 -0.0194760000
Si 1.6190100000 1.1535500000 31.2479000000 -0.0541710000 0.0993920000 -0.1655830000
Si 1.6032100000 6.7458200000 31.2133000000 -0.1364450000 0.0388810000 -0.0889750000
Si 0.3208500000 0.9297000000 22.7518000000 0.3069250000 0.3422140000 0.5707030000
Si 2.5098700000 6.5731600000 22.8418000000 -0.0677780000 0.4478420000 0.3783830000
Si 2.9578000000 5.2212900000 29.0060000000 0.0611070000 0.1088350000 -0.0320730000
Si 0.1936400000 10.9145000000 29.0580000000 -0.0627210000 0.2747070000 -0.0933770000
C 2.4810600000 2.7344800000 7.7428000000 -5.6912580000 3.6460220000 -21.6262660000
C 2.4650800000 8.1174500000 7.5434000000 -1.3293730000 -0.2732650000 -13.6614800000
C 1.2532000000 5.6305400000 7.4641600000 -0.5506330000 2.2826160000 -15.7823860000
C 0.6097300000 11.0995000000 7.6582400000 -4.4244640000 -0.3268500000 -11.8764210000
H 0.9738000000 5.5775200000 22.7597000000 -0.0066200000 -0.3411170000 -0.1530010000
H 1.8904200000 11.0406000000 22.7910000000 -0.1798770000 -0.3690750000 -0.2538990000
H 1.3758700000 4.0799800000 29.1841000000 0.0007650000 -0.0114900000 -0.1954480000
H 1.7563700000 9.7508900000 29.0786000000 0.0313060000 -0.0773270000 -0.1468950000
H 1.2864500000 3.8613900000 25.3970000000 0.0364850000 0.3605520000 -0.0601430000
H 1.8083600000 9.6574200000 25.2077000000 0.1912450000 0.2454230000 -0.0154660000
H 0.0484700000 2.2246200000 31.6499000000 0.2174560000 0.4052110000 0.0751570000
H 3.0784700000 7.8333600000 31.6730000000 0.1815060000 0.3523140000 0.0107270000
H 0.3041100000 11.2380000000 27.1663000000 -0.1193770000 -0.2725590000 0.0582420000
H 3.0236000000 5.4998100000 27.1100000000 -0.0834690000 -0.1719460000 0.1161000000
H 2.7166600000 4.0999400000 20.9499000000 -0.0315230000 0.0619390000 0.2099010000
H 0.1564900000 9.5654400000 20.8992000000 0.0677610000 0.2443070000 0.0744370000
H 2.8139100000 2.5445500000 27.1199000000 0.0434820000 0.2232710000 -0.3077960000
H 0.3054300000 8.3601400000 27.0768000000 0.0243170000 0.1112660000 -0.3907360000
H 1.2380100000 1.8332900000 21.1573000000 -0.1192590000 0.0194310000 -0.1431300000
H 2.0250800000 7.2657500000 20.9989000000 0.1845720000 -0.3052000000 1.0212760000
H 0.2450700000 11.0675000000 31.2074000000 0.0359660000 -0.7298250000 0.2909840000
H 0.0570000000 5.4737600000 31.1407000000 0.0866380000 -0.6596820000 0.1943090000
H 2.7874500000 2.8385700000 23.1927000000 -0.0685690000 0.1416440000 0.2247040000
H 0.2109500000 8.3902800000 23.0147000000 0.1928140000 0.2465370000 0.1356160000
H 0.2718600000 0.9508500000 24.8293000000 0.1036540000 -0.3878560000 -0.4455900000
H 2.2734000000 6.9706900000 24.9307000000 -0.0287490000 -0.1315540000 -0.2503410000
H 1.8727500000 1.1229500000 29.2897000000 0.0300500000 0.2306660000 0.2251430000
H 1.5960100000 6.7453700000 29.2125000000 -0.0045010000 0.1575280000 0.1921650000
84
lattice="3.0899999140 0.0000000000 0.0000000000 0.0000000000 11.2700004580 0.0000000000 0.0000000000 0.0000000000 39.2999992370" Properties=species:S:1:pos:R:3:force:R:3 energy=-337.4274817100 virial="104.6710855180 2.4204547388 20.4787831864 2.4204547388 125.1373630728 -10.0796330042 20.4787831864 -10.0796330042 196.5105815513"
Ga 2.7230400000 10.0503000000 9.4248800000 0.1314680000 -1.1366720000 0.6109740000
Ga 2.6345100000 4.2924800000 9.3209000000 1.8925350000 0.3870890000 2.2375670000
Ga 1.2006300000 1.4833600000 9.2463000000 0.1941180000 2.3998650000 4.6905270000
Ga 1.1850700000 7.2340100000 9.2788500000 -1.0575970000 0.6237340000 2.4163230000
Ga 2.8660100000 0.3436900000 11.8638000000 -0.2066380000 2.8565320000 0.3760650000
Ga 2.7027700000 6.1798800000 11.7585000000 -0.5266290000 -0.2057820000 0.3051390000
Ga 1.1464400000 9.0357500000 11.9408000000 1.2550860000 -0.0058430000 -1.1294380000
Ga 1.1157800000 3.4357600000 11.8211000000 -0.3394400000 -1.2063460000 -0.5745270000
Ga 2.8491800000 4.3918000000 14.4260000000 0.0053180000 0.2768360000 -0.8730000000
Ga 2.7305800000 10.0423000000 14.2864000000 2.5248690000 0.3056260000 1.6769330000
Ga 1.2349600000 1.6939000000 14.5023000000 0.1343130000 -0.7550850000 -3.5272290000
Ga 1.3218000000 7.2580800000 14.4065000000 -3.0979230000 0.4487390000 1.1137510000
Ga 2.8542900000 2.5347300000 16.9934000000 -0.4077630000 0.8272400000 -2.7703600000
Ga 2.6626800000 8.2114900000 16.7724000000 4.9352310000 2.4240140000 2.0547470000
Ga 1.2270100000 11.0093000000 16.8691000000 1.7503190000 0.8692750000 0.7679970000
Ga 1.2432000000 5.4584300000 16.8973000000 -1.3749260000 0.3292980000 -3.2082250000
Ga 2.9601700000 4.4722800000 19.3027000000 0.5660390000 -0.5690540000 2.9217890000
Ga 3.0643200000 10.0490000000 19.3037000000 -0.9403670000 1.3703840000 2.1891380000
Ga 1.3433800000 7.3032200000 19.4775000000 -1.0928790000 -1.2252200000 2.4069790000
Ga 1.4788100000 1.6311600000 19.4381000000 1.2113070000 1.3961220000 4.2147690000
O 2.7817100000 2.5915600000 8.6565700000 3.6470290000 -6.5007160000 14.3708150000
O 2.6961800000 8.3062500000 8.4801500000 7.7616170000 2.8374490000 12.3622930000
O 1.2148900000 11.0691000000 8.7035700000 2.9430280000 -5.8846680000 16.2146440000
O 1.3101300000 5.3894500000 8.7650500000 0.3670000000 -5.5284010000 15.0496460000
O 2.6348800000 4.2360000000 11.1408000000 -0.0133270000 -0.4951540000 1.9916350000
O 2.8282800000 9.9040100000 11.1670000000 -1.1742370000 -2.2901830000 2.4235940000
O 1.2656000000 1.5800900000 11.2354000000 -0.0516400000 0.2247400000 1.6936170000
O 1.0697200000 7.3080700000 11.2370000000 0.6910080000 0.7979310000 2.0979000000
O 2.8348400000 0.5380300000 13.8261000000 -0.2406090000 2.2800770000 0.2347870000
O 2.5648800000 6.2081800000 13.8010000000 2.4865100000 -1.5602970000 -1.7323230000
O 1.3953000000 9.0372400000 13.7480000000 -2.0947090000 -0.9173320000 0.2018450000
O 1.2947100000 3.4191800000 13.6752000000 0.3433620000 0.3705000000 0.0400420000
O 2.9107900000 10.0261000000 16.3095000000 -1.6762620000 -0.6254310000 -1.2060550000
O 2.6525900000 4.4103600000 16.2724000000 0.7529050000 -0.9259010000 1.3400750000
O 1.2988000000 1.6386300000 16.2401000000 0.1179270000 -0.4313110000 3.4031450000
O 1.2983800000 7.3554700000 16.3848000000 -4.2522770000 -2.2947420000 -0.1703190000
O 1.4457700000 5.3226600000 18.6251000000 0.0673800000 0.2746860000 1.6351500000
O 1.3933800000 11.2327000000 18.8521000000 0.9906750000 -1.5113050000 -1.1688440000
O 2.7779200000 8.3099200000 18.8454000000 0.6094020000 -0.8627310000 -2.3227590000
O 0.0408000000 2.5151700000 18.7429000000 -1.1063490000 0.9394140000 0.7104590000
Si 1.1750200000 3.6580500000 22.0270000000 0.2209380000 -0.0318270000 0.5796050000
Si 1.7999900000 9.3525100000 22.1532000000 -0.1448960000 -0.3518550000 0.3219260000
Si 1.2267400000 2.5242500000 28.1755000000 0.0035470000 -0.3072880000 0.1104950000
Si 1.9549500000 8.1907900000 28.0293000000 -0.0839140000 -0.3839910000 0.1446260000
Si 1.8852800000 0.0229500000 25.9689000000 -0.0927760000 0.3725610000 0.1132160000
Si 1.3906500000 5.7261000000 26.0066000000 0.1612690000 0.2675110000 0.0677620000
Si 0.1702000000 3.9721600000 32.6085000000 -0.1562060000 0.0989350000 -1.0896560000
Si 0.3136000000 9.5327900000 32.4634000000 -0.0126100000 0.1721510000 -1.0351500000
Si 2.8947800000 2.9471000000 25.1419000000 -0.2013480000 -0.5064900000 0.0083650000
Si 0.2524500000 8.5134900000 25.0697000000 0.1011240000 -0.3391650000 0.0501800000
Si 1.6161100000 1.1843400000 31.2790000000 -0.0514430000 -0.0365070000 -0.0939920000
Si 1.5525700000 6.8057900000 31.2137000000 -0.0057170000 -0.0549840000 -0.2260810000
Si 0.4301700000 0.9306000000 22.7916000000 0.0871940000 0.6331920000 0.3996540000
Si 2.5011000000 6.5311300000 22.8327000000 -0.2727220000 0.1474630000 0.5273530000
Si 2.9808600000 5.2382400000 29.0205000000 0.1357710000 0.3224120000 -0.0226400000
Si 0.2277200000 10.8916000000 28.9835000000 -0.0440950000 0.2921790000 0.0129110000
C 2.5603900000 2.8757300000 7.6340300000 -3.7557300000 5.7307480000 -20.7236870000
C 2.2447600000 8.2301900000 7.5118200000 -7.7092710000 -1.1717980000 -18.8672770000
C 1.2525400000 5.6333800000 7.7042100000 -1.4483200000 5.5774000000 -20.2856630000
C 1.0764700000 11.1877000000 7.6494800000 -2.9011900000 2.8486190000 -23.9247090000
H 0.9723400000 5.4961900000 22.9536000000 0.1199420000 -0.1221440000 -0.2537290000
H 1.9964400000 11.2090000000 22.6426000000 -0.0071280000 -0.3431090000 -0.0230800000
H 1.4392000000 4.1677600000 29.0407000000 0.0460970000 -0.1375940000 -0.0535190000
H 1.8844700000 9.7029200000 29.0090000000 -0.0035240000 0.0333180000 -0.1083300000
H 1.2983000000 4.0008400000 25.1458000000 0.0856550000 0.3094350000 0.0977590000
H 1.8193100000 9.6351800000 25.1286000000 0.0061900000 0.2375930000 0.0544150000
H 0.0645900000 2.1888600000 31.8018000000 0.1637580000 0.4812320000 0.0424600000
H 0.0911400000 7.7791800000 31.5662000000 -0.1642070000 0.5158100000 0.0514860000
H 0.3339800000 11.1700000000 27.1653000000 -0.0732030000 -0.2999330000 0.0049120000
H 2.9231500000 5.6305200000 27.1219000000 -0.0212670000 -0.2652510000 0.1731160000
H 2.6328900000 4.2987500000 20.9476000000 -0.0661180000 0.0764870000 0.1088000000
H 0.4708700000 9.9021900000 20.8765000000 0.0199910000 0.0029140000 0.3047490000
H 2.7636200000 2.6450400000 27.1283000000 0.0270380000 0.2207000000 -0.4354920000
H 0.3985300000 8.1993800000 26.9419000000 -0.1044760000 0.2137330000 -0.2937150000
H 0.8128200000 1.7540600000 21.0590000000 0.1249960000 -0.4041730000 0.3173980000
H 1.6744400000 7.3987400000 21.1608000000 0.0432370000 -0.0338620000 0.2856900000
H 0.2939000000 11.0327000000 30.9827000000 0.0225120000 -0.6042910000 0.2160430000
H 2.9341200000 5.3377700000 31.1737000000 0.2011030000 -0.7819340000 0.2846300000
H 2.6921800000 2.7372800000 23.0524000000 -0.2042030000 0.1964130000 0.1978360000
H 0.2923700000 8.5240900000 23.0585000000 0.1848060000 0.2243200000 -0.0157400000
H 0.3013900000 1.0052100000 24.9026000000 0.0091680000 -0.2583770000 -0.2796600000
H 2.3336500000 6.8567800000 24.8371000000 -0.0306540000 -0.2670470000 -0.4095750000
H 1.7873200000 1.1569000000 29.3117000000 0.0472280000 0.1150920000 0.3544070000
H 1.6857400000 6.8174600000 29.2617000000 0.0185770000 0.3040240000 0.2426320000
84
lattice="3.0899999140 0.0000000000 0.0000000000 0.0000000000 11.2700004580 0.0000000000 0.0000000000 0.0000000000 39.2999992370" Properties=species:S:1:pos:R:3:force:R:3 energy=-341.3051727300 virial="128.5915141825 1.8947227714 -16.7405816899 1.8947227714 107.7958362421 -17.1133930177 -16.7405816899 -17.1133930177 140.1390384021"
Ga 2.8099900000 10.0556000000 9.3457700000 -1.7758180000 -1.4826780000 2.7228540000
Ga 2.7510000000 4.2862200000 9.3275300000 -0.2977670000 -0.0214480000 1.0471960000
Ga 1.2281300000 1.5713400000 9.2881500000 -1.0309280000 -1.9298610000 3.0564180000
Ga 1.1454100000 7.3722600000 9.2874200000 1.5113090000 -1.8277850000 -0.2319550000
Ga 2.7427000000 0.4622900000 11.8969000000 1.5039730000 -0.3943270000 -0.5293860000
Ga 2.6998700000 6.2944100000 11.8278000000 -1.0154930000 -1.0914340000 -0.5465640000
Ga 1.1331700000 9.0105700000 11.9090000000 1.1659740000 -1.5253940000 0.0988660000
Ga 1.1489000000 3.3643500000 11.8094000000 -0.8302870000 -1.6940220000 -0.0481450000
Ga 2.9514400000 4.4348400000 14.4624000000 -1.8638080000 0.2280210000 -0.4743680000
Ga 2.8267100000 10.1278000000 14.2950000000 -0.0750150000 -2.1188650000 0.7197520000
Ga 1.2205100000 1.6333900000 14.3293000000 -0.2217060000 -1.7822840000 1.8238450000
Ga 1.3985200000 7.2746400000 14.4812000000 -0.0097860000 -1.8534830000 -1.8210780000
Ga 2.7979100000 2.6349400000 16.8775000000 -0.0315850000 -0.9165230000 0.9902180000
Ga 2.8276100000 8.2264600000 16.9130000000 -0.9584160000 0.6270780000 0.4100260000
Ga 1.3481600000 10.9824000000 16.8457000000 -2.1725060000 0.8630300000 -0.1972780000
Ga 1.2070400000 5.3581800000 16.8462000000 1.7401460000 0.7482900000 0.7108820000
Ga 2.9608600000 4.5358400000 19.2801000000 -0.1222820000 -1.2080890000 2.0538990000
Ga 3.0592800000 10.1317000000 19.2857000000 -1.2747420000 -0.9878350000 2.6668110000
Ga 1.3276300000 7.3406500000 19.5184000000 0.4426760000 -0.6704640000 2.1790400000
Ga 1.5111500000 1.5769800000 19.4730000000 -0.4524240000 0.3782930000 2.3858390000
O 2.7331800000 2.3726700000 8.7559200000 2.0910860000 -2.2735960000 8.5323590000
O 2.7962800000 8.2858000000 8.6725600000 0.0357320000 1.4898910000 2.8021410000
O 1.0406900000 10.9298000000 8.7052400000 -12.3521890000 0.9844980000 9.6006450000
O 1.0831100000 5.2989500000 8.5571900000 -3.9368610000 -0.3776210000 6.1799360000
O 2.6421400000 4.2112200000 11.2268000000 0.9430090000 1.9476170000 1.9270310000
O 2.7490500000 9.8637200000 11.2837000000 -1.0815540000 0.8412370000 0.0022650000
O 1.2974600000 1.2864600000 11.2083000000 -1.3275910000 0.7407310000 0.8888880000
O 1.0728800000 7.1327300000 11.0845000000 0.5520990000 0.4095740000 2.2427300000
O 2.7153800000 0.5901200000 13.8050000000 0.2301530000 2.3474700000 -0.4171590000
O 2.7152300000 6.0237000000 13.6571000000 0.3407970000 1.1265850000 -0.1504210000
O 1.2479600000 8.9662100000 13.8104000000 0.2408080000 1.5469800000 0.1901200000
O 1.0258500000 3.2940200000 13.7700000000 1.7890030000 1.2996460000 -1.9268530000
O 2.7585600000 10.1015000000 16.2535000000 1.9761400000 -0.4059550000 -1.0867120000
O 2.8697200000 4.4004200000 16.2803000000 -1.5550640000 -0.0058900000 0.7803620000
O 1.2453600000 1.5896700000 16.3695000000 0.0184840000 -0.5110060000 -0.0279110000
O 1.1557200000 7.1835000000 16.2728000000 0.5361760000 -0.6772750000 1.8299520000
O 1.3949700000 5.5066800000 18.8151000000 0.2072690000 1.4522860000 -0.8684080000
O 1.4482000000 11.0253000000 18.7395000000 1.2479480000 0.9356020000 -1.0803120000
O 2.9105500000 8.2258600000 18.8982000000 -0.3468280000 0.0166020000 -0.5705330000
O 2.9773600000 2.6047700000 18.8425000000 0.3458010000 0.0400040000 -1.3091210000
Si 1.1784500000 3.6744900000 22.0277000000 0.0878680000 -0.2359730000 0.6393180000
Si 1.8259900000 9.3817500000 22.1598000000 -0.2237800000 -0.2393920000 0.4843490000
Si 1.2071300000 2.5364600000 28.1792000000 0.0830700000 -0.3435430000 0.1301910000
Si 1.9795300000 8.1693800000 28.0112000000 -0.0586070000 -0.3624080000 0.2053580000
Si 1.8977000000 0.0205700000 25.9570000000 -0.1126720000 0.3158930000 0.0964810000
Si 1.3623500000 5.7299500000 26.0299000000 0.2066480000 0.3021720000 0.0635950000
Si 0.1190400000 3.9873300000 32.6066000000 -0.1124990000 0.0797160000 -1.0335230000
Si 0.2856500000 9.5350800000 32.4385000000 -0.0632150000 0.1840770000 -0.9761160000
Si 2.9178600000 2.9625800000 25.1227000000 -0.1353750000 -0.5737620000 0.0273950000
Si 0.2367300000 8.5101800000 25.0702000000 -0.0029000000 -0.3097570000 -0.0014700000
Si 1.6364500000 1.1775700000 31.3118000000 -0.0350710000 -0.0078240000 -0.1001780000
Si 1.5668600000 6.7721100000 31.2147000000 -0.1229510000 0.0571720000 -0.1694110000
Si 0.4575900000 0.9455800000 22.8133000000 -0.0478680000 0.6013030000 0.5636630000
Si 2.5084900000 6.4950700000 22.7918000000 -0.2598220000 0.3274270000 0.7354700000
Si 2.9859200000 5.2771500000 29.0510000000 0.0928460000 0.2800070000 -0.0683920000
Si 0.2562500000 10.8866000000 29.0090000000 -0.0817660000 0.2543090000 -0.0575690000
C 2.6095400000 2.5827000000 7.6327100000 -1.2442980000 2.9797430000 -14.3379220000
C 2.5852400000 8.0953600000 7.4830800000 -1.2024190000 -1.4365360000 -7.6788660000
C 1.6042500000 5.5613000000 7.5818300000 4.4271580000 2.7517390000 -10.2451550000
C 1.8071400000 11.0224000000 7.9196200000 13.8205980000 1.6351450000 -14.1390810000
H 0.9184700000 5.4729800000 22.8302000000 0.1420670000 -0.2562650000 -0.1191430000
H 1.9674000000 11.1299000000 22.7659000000 0.0388490000 -0.3894700000 -0.1128850000
H 1.3875400000 4.1548100000 29.0085000000 0.0651460000 -0.1514670000 -0.0390150000
H 1.8606600000 9.7059900000 29.0158000000 0.0247710000 0.0133700000 -0.1246080000
H 1.3559400000 4.0375300000 25.1837000000 0.0212300000 0.3301110000 0.1053680000
H 1.7293000000 9.5974000000 25.1537000000 0.0997010000 0.2916410000 0.0354360000
H 0.0560900000 2.1728700000 31.8055000000 0.1565750000 0.5010390000 0.0418710000
H 3.0830900000 7.8715900000 31.5544000000 0.0574160000 0.4012670000 -0.0155670000
H 0.3346800000 11.1719000000 27.1120000000 -0.0350350000 -0.2890940000 0.0986290000
H 2.9027600000 5.5542900000 27.0751000000 -0.0606210000 -0.2155440000 0.1288550000
H 2.5942800000 4.2792200000 20.8487000000 -0.0790320000 0.0910890000 0.4083000000
H 0.3372200000 9.9458900000 20.8659000000 0.0507260000 0.0983290000 0.2916900000
H 2.8210800000 2.5826700000 27.0468000000 0.0124110000 0.2536780000 -0.4210820000
H 0.4309600000 8.1652700000 26.9684000000 -0.1057490000 0.1968870000 -0.3241150000
H 0.8491200000 1.8572500000 20.9983000000 0.1919050000 -0.2118330000 0.6362260000
H 1.5979200000 7.4090600000 21.1020000000 0.0111150000 -0.1609920000 0.3866330000
H 0.2493600000 11.0487000000 31.0066000000 0.0052420000 -0.6666460000 0.1354420000
H 2.9599000000 5.3019400000 31.2069000000 0.1330920000 -0.7690870000 0.2603370000
H 2.6287900000 2.7607900000 23.0792000000 -0.1746170000 0.2435480000 0.1029170000
H 0.2379000000 8.5531800000 23.0122000000 0.2213590000 0.2110090000 0.0510730000
H 0.3450600000 1.0447100000 24.9197000000 0.0538540000 -0.2364400000 -0.3712020000
H 2.3210700000 6.8935300000 24.8503000000 -0.0501690000 -0.3155300000 -0.3990760000
H 1.7258500000 1.1479900000 29.2732000000 0.0133970000 0.1090460000 0.3372140000
H 1.7052600000 6.7945500000 29.2804000000 0.0054900000 0.3942460000 0.2126920000
84
lattice="3.0899999140 0.0000000000 0.0000000000 0.0000000000 11.2700004580 0.0000000000 0.0000000000 0.0000000000 39.2999992370" Properties=species:S:1:pos:R:3:force:R:3 energy=-337.9016163400 virial="137.6591648291 7.2492771477 0.0449314358 7.2492771477 125.3440647618 1.8513801658 0.0449314358 1.8513801658 161.7335648112"
Ga 2.7427900000 10.0011000000 9.3678600000 0.0162470000 0.5336720000 4.0286800000
Ga 2.8108800000 4.3496500000 9.3012500000 -1.5587520000 -0.9465360000 2.5400740000
Ga 1.1862200000 1.5443600000 9.4505200000 1.1332850000 0.0731560000 0.0332250000
Ga 1.1802000000 7.3016000000 9.2579200000 0.3722010000 -1.8057880000 1.1855720000
Ga 2.6852300000 0.5948100000 11.8931000000 -1.8895970000 -2.0857350000 -1.3221370000