69
lattice="3.0729999540 0.0000000000 0.0000000000 1.5365000130 7.9838884020 0.0000000000 0.0000000000 0.0000000000 43.8005676270" Properties=species:S:1:pos:R:3:force:R:3 energy=-467.2356623800 virial="-1.1556171894 0.3222981618 -2.0424468875 0.3222981618 -8.2793107056 -0.9176764733 -2.0424468875 -0.9176764733 -16.0356548818"
Ga 1.7759200000 4.5419200000 26.6347300000 0.6496190000 -1.6668320000 -3.2168090000
Ga 3.5090100000 7.5778100000 26.2396900000 -0.5894790000 -0.4938120000 -1.3320610000
Ga 3.1741700000 2.1131700000 24.6032700000 0.3803080000 0.2969160000 -1.8715510000
Ga 1.6293600000 6.2895100000 23.3351200000 0.3109710000 0.3670250000 1.3814330000
Ga 3.0334500000 0.2574900000 30.6513100000 -0.4661660000 2.0650370000 0.8479490000
Ga 1.3318300000 3.0735900000 30.9168200000 0.4892200000 -0.0962070000 -1.0658660000
Ga 3.0694700000 5.7082600000 29.1986200000 -1.3212840000 -1.2205310000 2.0898430000
Ga 3.3706300000 1.7825000000 27.8877400000 0.5154760000 3.5657400000 1.0059560000
Ga 2.4912200000 7.5588800000 38.2338700000 0.1325350000 0.5639090000 1.3328130000
Ga 4.2676200000 6.6031200000 35.5094600000 0.2068860000 -1.4826400000 -0.8324140000
Ga 1.6908500000 1.2758900000 33.8999500000 1.6572650000 -2.3272190000 -1.3401500000
Ga 3.0056000000 4.0985400000 33.7347100000 1.3268260000 0.1341330000 -0.8679650000
O 3.1907600000 7.3736200000 22.7526300000 -0.5410990000 -0.7861700000 -0.6836690000
O 1.6824900000 1.0784900000 24.9524200000 0.2440840000 -1.0399120000 1.3698960000
O 3.0362600000 2.2599800000 22.7648500000 0.0924060000 -0.2989610000 0.0400580000
O 1.8264800000 6.4979100000 25.3050800000 -0.1647310000 0.0171720000 -0.1482670000
O 1.6529700000 4.6917200000 22.4971700000 -0.1726750000 1.3463920000 -0.0421030000
O 3.6671600000 3.7125100000 25.2392600000 -0.3238380000 2.1875500000 1.7522110000
O 1.8840100000 2.7042700000 27.3429300000 -0.7574200000 0.1551490000 0.3509230000
O 1.4249400000 4.7622200000 29.8142100000 1.4191480000 0.8384130000 -0.7133660000
O 3.4118700000 5.4548800000 27.4358000000 -1.2385890000 0.5655600000 -1.0848000000
O 2.9226400000 2.1711000000 29.7163700000 1.2738630000 -1.3070390000 0.7761600000
O 0.4448700000 0.1009100000 27.4777800000 -0.1852550000 -2.4292120000 -1.2872740000
O 2.9740000000 7.4066100000 30.0089100000 0.6389200000 -1.0260280000 -0.5577510000
O 1.5552200000 4.8217400000 34.5250700000 -1.3286660000 0.3357860000 0.2634080000
O 3.3472300000 2.3258800000 34.4467500000 -1.1390540000 -0.6946680000 -0.3995380000
O 1.9046800000 1.1426100000 31.8580000000 -1.5441360000 0.8959460000 1.2886910000
O 3.8024500000 7.3474100000 34.0203000000 -0.9874660000 3.2010690000 -1.3621860000
O 2.8817500000 3.8699700000 31.7489600000 0.3574430000 -0.1254710000 2.6663910000
O 2.6822000000 6.7778000000 36.5007300000 0.4242700000 -0.5681320000 0.4032550000
Si 1.5339500000 4.8017300000 10.8419300000 -0.2753590000 -0.2585250000 0.0988400000
Si 2.9332300000 2.1756000000 10.7978900000 1.0834010000 -0.4511970000 0.2020310000
Si 2.9714900000 7.4423900000 10.8674700000 0.6638580000 1.0237840000 0.6614710000
Si 1.4892600000 3.0360300000 8.1389500000 -0.0874000000 0.4281720000 0.7624340000
Si 2.8847800000 0.4066700000 8.2643300000 0.9243460000 -0.2889250000 -0.3536640000
Si 3.0761300000 5.7478200000 8.3830500000 -0.4348370000 -0.4133970000 -0.9599750000
Si 1.7066600000 4.8679900000 15.9619900000 -0.7485070000 -1.0855710000 -0.7590490000
Si 3.2446100000 2.1414300000 15.9148700000 -0.8439490000 1.4798390000 -0.0926100000
Si 3.1822500000 7.5440000000 15.9760800000 0.2224740000 -0.0932430000 -0.8425800000
Si 1.5716900000 4.8760500000 20.8258800000 -0.0347940000 0.8405460000 0.5832990000
Si 3.0603600000 2.3329200000 21.1680900000 0.0732560000 -0.6843540000 -0.1648360000
Si 3.0400500000 7.6123300000 21.0049900000 1.6169850000 -0.5993520000 -0.4393320000
Si 3.1756500000 3.9159700000 13.3553600000 -0.3487610000 -1.2190410000 1.3005660000
Si 1.5531700000 1.2324800000 13.4087800000 -0.0720340000 -0.4007210000 -0.7730320000
Si 1.5782100000 6.4990100000 13.4888700000 -0.0440770000 0.9930610000 -1.3077210000
Si 1.6840700000 2.9872900000 18.5024300000 -1.2809090000 0.9821800000 -0.4782750000
Si 0.1392800000 0.4587700000 18.5288100000 -0.3770230000 -1.5598660000 -0.2130190000
Si 3.1054200000 5.6688100000 18.3717100000 1.1821280000 1.9952870000 0.8137920000
C 1.5431500000 4.8506800000 7.7226400000 -0.2246110000 0.2863260000 0.0668350000
C 3.0239100000 2.1478500000 7.5289800000 -0.2989250000 0.1358140000 0.6490600000
C 2.8982300000 7.5023600000 7.6348200000 0.2946600000 -0.3115180000 1.0045570000
C 1.4382900000 3.0722800000 10.0725200000 -0.1797600000 -0.6559780000 1.0106610000
C 2.9822800000 0.3692500000 10.1710100000 -0.4472410000 0.0477490000 0.4307180000
C 3.0536400000 5.6993000000 10.2794800000 0.1665860000 0.0167080000 -0.7697130000
C 1.6162100000 4.7972800000 17.8180400000 -0.4620930000 -0.6797390000 0.0631890000
C 3.1746200000 2.1423700000 17.8247900000 0.8869710000 0.5745990000 -0.1411430000
C 3.2136300000 7.5341900000 17.8245000000 -0.3390630000 -0.2752440000 0.8583920000
C 1.6315900000 4.7372900000 12.7449700000 -0.3183440000 0.7665740000 -0.3674050000
C 3.0680000000 2.0891400000 12.7880700000 0.3713580000 0.9694790000 -1.5116690000
C 3.0876900000 7.4125500000 12.8273800000 0.0427440000 -0.0029640000 -0.7116720000
C 3.2198800000 3.9802700000 15.3041100000 0.2266830000 -0.4273800000 -0.1719220000
C 1.6761100000 1.3255800000 15.2418100000 0.1319480000 -0.8703560000 1.3991380000
C 1.6534600000 6.6224900000 15.3483900000 -0.1928590000 0.2078900000 0.3986450000
C 1.5209100000 3.1005100000 20.3753300000 0.5541340000 -0.0616060000 -0.2308360000
C 3.0964800000 0.5472400000 20.4757900000 -0.7141980000 -0.3798590000 -0.0530520000
C 3.1014500000 5.8683300000 20.2371300000 -0.0609170000 -1.0363620000 1.1031930000
H 1.5706800000 4.9568200000 6.6221800000 -0.0603690000 0.1417900000 0.0074540000
H 3.0019200000 2.0802200000 6.4263700000 0.0152680000 -0.0618110000 0.0914380000
H 2.9087500000 7.4409800000 6.5333000000 0.0298480000 -0.0457500000 0.0725770000
69
lattice="3.0729999540 0.0000000000 0.0000000000 1.5365000130 7.9838884020 0.0000000000 0.0000000000 0.0000000000 43.8005676270" Properties=species:S:1:pos:R:3:force:R:3 energy=-468.0595415200 virial="-2.2478237649 4.8144377847 -0.3091720171 4.8144377847 -2.4415702208 0.0981073673 -0.3091720171 0.0981073673 -13.1443750308"
Ga 1.8043500000 4.5198200000 26.6165500000 0.6779790000 -0.8894890000 -2.2079370000
Ga 3.4981700000 7.6086600000 26.2311600000 -2.1940820000 -0.9659590000 -0.6629760000
Ga 3.2255500000 2.1120900000 24.6071200000 0.3438850000 -0.4425720000 -1.7575630000
Ga 1.6193000000 6.2582300000 23.4147200000 -0.1394160000 1.7359130000 1.4941240000
Ga 2.9944000000 0.2147900000 30.6656800000 0.1485680000 1.2623770000 0.1186630000
Ga 1.3367000000 3.0916800000 30.9402500000 0.6249980000 -0.1320030000 -1.1859950000
Ga 3.1252900000 5.6680700000 29.1906800000 -1.0734930000 -2.0933570000 1.0379880000
Ga 3.3614400000 1.7843300000 27.9203700000 -0.0979260000 1.2983330000 -0.4674560000
Ga 2.4782900000 7.6001900000 38.2557800000 0.0984570000 0.6711750000 1.4981230000
Ga 4.2658700000 6.6394700000 35.4819900000 -0.1138150000 -0.7051510000 -1.7758110000
Ga 1.7193100000 1.3026000000 33.8086600000 0.1073680000 0.0555300000 -0.1304730000
Ga 3.0095000000 4.0661000000 33.7610900000 0.0241700000 1.8569030000 -1.0969720000
O 3.1336700000 7.3210200000 22.8132300000 0.0536990000 -0.3933150000 -1.4020700000
O 1.7250200000 1.0290900000 25.0157800000 -0.0451170000 1.0582150000 0.0646550000
O 3.1098200000 2.2119400000 22.7479400000 -0.0246350000 0.0491230000 0.5483980000
O 1.7079100000 6.5983600000 25.3431600000 0.9739320000 -1.7350970000 -1.6739010000
O 1.6877200000 4.7918000000 22.4507000000 -0.3711280000 -0.3491330000 0.6478980000
O 3.5598900000 3.7067400000 25.4061300000 -0.9355970000 1.7315320000 0.5464000000
O 1.8075500000 2.7051500000 27.3531900000 0.3643130000 -0.3597390000 0.8525430000
O 1.5076600000 4.7340600000 29.7533200000 1.0344120000 -0.1098020000 -0.0408610000
O 3.4281400000 5.4983300000 27.4211600000 -1.1120470000 -0.0967480000 -1.2618400000
O 2.9735500000 2.0355200000 29.7062800000 0.8434300000 -0.6156730000 1.7889120000
O 0.2805300000 0.0176400000 27.3847900000 1.0865540000 0.7754190000 0.8393840000
O 2.9871300000 7.2794600000 29.9368200000 -0.0585080000 1.7257710000 1.2014570000
O 1.4844900000 4.7712900000 34.5489800000 -0.2454170000 1.4666940000 0.2665520000
O 3.2601400000 2.4287900000 34.4133200000 0.1233640000 -3.5262450000 -0.0395150000
O 1.8685200000 1.1537900000 31.8980000000 -1.3335740000 0.7425320000 -0.3690890000
O 3.7110100000 7.5335800000 33.9531300000 0.2739900000 -0.2945830000 1.3457580000
O 2.9011800000 3.8466200000 31.8039000000 0.1764830000 -0.0810020000 1.7289090000
O 2.6943200000 6.7769600000 36.5737200000 0.0887600000 -0.6864690000 -1.1898370000
Si 1.5273700000 4.8395100000 10.8406600000 -0.3619470000 -0.8912810000 -0.0732580000
Si 2.9661700000 2.1805600000 10.7391700000 0.5847100000 -0.5838110000 1.1332780000
Si 2.9583400000 7.4461200000 10.9209300000 0.8406510000 1.0362680000 -0.7113480000
Si 1.5446700000 3.0960600000 8.1049700000 -0.1892470000 -0.3624460000 1.1861500000
Si 3.0160200000 0.4422300000 8.2389700000 0.2593710000 -0.3346570000 1.5989240000
Si 3.0274400000 5.7663600000 8.4059500000 0.2245390000 0.4541040000 -1.6182390000
Si 1.6933300000 4.7555300000 15.9374700000 -0.0002560000 0.3232250000 0.1516630000
Si 3.2855800000 2.0994500000 15.9402400000 -0.6437200000 0.9688640000 -0.2167120000
Si 3.2453000000 7.4616000000 15.8820000000 -0.7113030000 0.1964130000 1.0458240000
Si 1.5261600000 4.9141600000 20.8216400000 -1.0531950000 -0.5467230000 0.1871300000
Si 3.0180500000 2.3244500000 21.1451100000 0.0954930000 -0.9315220000 0.3735150000
Si 3.0608800000 7.6004600000 21.0108400000 -0.4336800000 -0.9016060000 0.8338920000
Si 3.1977900000 3.9244400000 13.4169800000 -0.2938250000 0.4338550000 -1.0108140000
Si 1.5644400000 1.2704800000 13.3575300000 0.4511970000 0.3188140000 0.1371210000
Si 1.5991600000 6.5162700000 13.4615500000 -0.3040340000 1.4462020000 -0.0340290000
Si 1.6539800000 2.9850700000 18.5226900000 -1.1060020000 1.2064550000 -0.7621820000
Si 0.0858900000 0.4317700000 18.5152100000 -0.4048740000 -0.6441460000 -0.3581900000
Si 3.0455900000 5.7187400000 18.3313500000 -0.1935390000 0.5786650000 1.3416120000
C 1.4996100000 4.9195600000 7.7448900000 -0.0788130000 -0.0303550000 -0.4435900000
C 3.0959300000 2.1633600000 7.5168100000 -0.4708070000 0.5856810000 0.4825060000
C 3.0236600000 7.5559400000 7.6934900000 -0.0709010000 -0.8301760000 -0.0295150000
C 1.4358200000 3.0359100000 10.1150300000 0.4266180000 0.7898060000 -0.6654950000
C 2.9804300000 0.3649100000 10.2079800000 -0.1854330000 0.0778670000 -0.0379760000
C 3.0355300000 5.7126600000 10.2083500000 0.2381240000 0.0733920000 1.4117710000
C 1.4784300000 4.7629300000 17.7873600000 1.5363210000 0.1058110000 0.4652040000
C 3.1745600000 2.1887900000 17.8287300000 0.3360140000 -0.8471520000 0.1309550000
C 3.1531200000 7.5318700000 17.7717700000 0.0585410000 -0.1347450000 0.8959090000
C 1.6508000000 4.8543000000 12.7310100000 -0.4109490000 -1.5138920000 0.1908670000
C 3.1011000000 2.2060900000 12.7163000000 -0.1155380000 -0.9267540000 -0.4523780000
C 3.0895200000 7.4412300000 12.8255700000 0.3459330000 0.2249940000 -0.4476460000
C 3.2628100000 3.9455500000 15.2778100000 -0.8056660000 -1.3728150000 0.2239070000
C 1.7360400000 1.2451100000 15.2862800000 -0.3328580000 0.1572950000 -0.5166100000
C 1.6799300000 6.5325800000 15.3810900000 0.3102720000 0.2499570000 -1.3257050000
C 1.4734200000 3.0597300000 20.3681600000 0.7543350000 1.2438320000 0.2382240000
C 3.0333300000 0.5223700000 20.5135400000 0.7911650000 -0.3020850000 -0.9115130000
C 2.9877300000 5.8510900000 20.2862600000 1.5735600000 -0.3221820000 -1.0235250000
H 1.4814900000 5.1124200000 6.6565700000 0.0583110000 -0.1007750000 -0.0669090000
H 3.0684900000 1.9383200000 6.4347500000 0.0145680000 0.3564610000 -0.0253820000
H 3.0239200000 7.5305700000 6.5879600000 -0.0327440000 -0.2040200000 -0.0149040000
69
lattice="3.0729999540 0.0000000000 0.0000000000 1.5365000130 7.9838884020 0.0000000000 0.0000000000 0.0000000000 43.8005676270" Properties=species:S:1:pos:R:3:force:R:3 energy=-468.2861318900 virial="-7.9477162554 -1.7324565823 9.6246768128 -1.7324565823 -13.7686281777 3.0204150901 9.6246768128 3.0204150901 -6.6564980101"
Ga 1.7435500000 4.4051700000 26.2744000000 1.1753040000 1.3235490000 -0.3512730000
Ga 3.1016800000 7.4582300000 26.3306400000 0.2928000000 0.1521880000 -0.5622380000
Ga 0.4291900000 2.1089500000 24.3208500000 -0.1578240000 0.1071800000 0.1726040000
Ga 1.5080200000 6.4004200000 23.4781700000 -0.5155570000 -0.6132430000 -3.2534950000
Ga 2.9202500000 0.2459500000 30.8399700000 0.9133390000 -1.7023520000 -0.5649080000
Ga 1.5419100000 3.0815600000 30.9863400000 -0.3920080000 -0.3398690000 0.5224050000
Ga 3.2742000000 5.3869000000 29.2607700000 1.0823410000 2.2361000000 -0.2661330000
Ga 3.2598300000 2.0277200000 27.9977700000 -0.5998880000 -0.6118600000 0.7256060000
Ga 2.4832400000 7.8132200000 38.3891600000 0.2260830000 -0.5481190000 -0.9437870000
Ga 4.3081600000 6.7267400000 35.2964900000 1.0679400000 0.9582620000 1.4387180000
Ga 1.7230000000 1.3323100000 33.5748700000 -0.2853590000 -2.2136020000 1.6818630000
Ga 3.0153600000 4.0963300000 33.9527800000 -0.5902000000 0.8552620000 -0.4185160000
O 2.9899100000 7.3570200000 22.6439900000 0.3117810000 -1.0281540000 1.1349430000
O 1.9321500000 1.1489400000 25.0749100000 -0.6235350000 0.9064680000 -0.5066870000
O 3.1829800000 1.9587700000 22.5460200000 -0.1425410000 0.2482380000 1.2177920000
O 1.6288300000 6.4306100000 25.1823100000 0.4715620000 1.3662210000 3.9073200000
O 1.3204300000 4.6744400000 22.7696300000 0.8197810000 0.7870600000 -0.8886660000
O 3.4493100000 4.1052900000 25.1037300000 -1.6010710000 -2.8513900000 0.1744780000
O 1.7034700000 2.9750500000 27.6207400000 0.1575280000 0.0127080000 -0.5050810000
O 1.8079600000 4.5762100000 29.8177700000 -2.3418220000 -0.7550220000 0.3082530000
O 3.1438700000 5.4629300000 27.3102500000 0.1871140000 0.7372020000 0.7218520000
O 3.0900700000 1.9967000000 30.0207000000 0.0284600000 0.7384100000 -1.9705060000
O 3.1100600000 0.3085000000 27.3220400000 0.4953220000 -1.0327070000 0.0477810000
O 3.0680800000 7.0041700000 30.4195600000 0.0244660000 -0.3146840000 -1.4728490000
O 1.4132900000 5.0698700000 34.4694500000 0.9481040000 -2.2159700000 -0.2734190000
O 3.2510700000 2.2367200000 34.3110200000 -0.1947280000 -0.6393710000 0.2884060000
O 1.4183200000 1.0114100000 31.7723500000 0.1841630000 1.4585460000 1.3736480000
O 3.1753600000 7.3650900000 34.0360000000 -0.5574590000 2.5665970000 -0.6726380000
O 2.9745000000 3.6816900000 32.1255200000 0.4670130000 -0.1609620000 -0.8025540000
O 2.7357700000 6.8025100000 36.5521000000 -0.5266290000 0.2832010000 0.2600970000
Si 1.6687200000 5.0259900000 10.7876100000 0.4160770000 -1.4167530000 1.2422330000
Si 3.2958500000 2.2679000000 10.9874300000 -0.1054220000 0.0325860000 -0.9731200000
Si 3.3656000000 7.5776200000 10.7798100000 -0.7441550000 1.4185020000 0.7776460000
Si 1.6735000000 3.1850300000 8.4805900000 0.3577590000 -0.1803310000 -1.7957210000
Si 0.1155200000 0.5494600000 8.3150800000 0.6416270000 0.4702320000 -0.4885010000
Si 3.2883400000 5.8603500000 8.2450700000 -0.2931540000 -0.2612110000 0.1511920000
Si 1.5073200000 4.8053100000 15.8413800000 -0.5699900000 0.3305460000 0.8923320000
Si 2.9794800000 2.1726700000 15.8719800000 0.3077900000 -0.8801350000 0.2195540000
Si 2.9872800000 7.4217600000 15.9663000000 0.6811680000 0.5013750000 -1.1487160000
Si 1.5395400000 4.5730600000 21.1165800000 0.2093730000 1.5787600000 -0.8783810000
Si 3.1482200000 2.0280000000 20.9331100000 -0.5936510000 -0.5788380000 0.7107090000
Si 3.0159400000 7.3026700000 20.9586100000 0.8101750000 0.9829450000 -1.6278330000
Si 3.0794400000 4.0080500000 13.3922500000 0.5495480000 -1.2307910000 -0.3258330000
Si 1.6780700000 1.2065200000 13.3958800000 -0.6907980000 1.0431820000 0.4679470000
Si 1.6585400000 6.6193600000 13.3290700000 -0.0997640000 -0.1957990000 0.4510070000
Si 1.4631300000 2.9359700000 18.4047900000 0.4205470000 1.2228770000 0.5645580000
Si 3.0371800000 0.3491400000 18.4443200000 -0.0006870000 -1.6904180000 0.0179810000
Si 3.0788900000 5.5754700000 18.4688200000 0.4612410000 0.4939720000 -0.0425750000
C 1.7607600000 4.9218600000 7.7260800000 -0.4574300000 0.3421760000 0.2334610000
C 3.2067700000 2.3654800000 7.7424700000 -0.0039200000 -0.6835940000 1.0001950000
C 3.1933600000 7.6394600000 7.6970800000 0.1666450000 0.1532000000 -0.1534970000
C 1.7680600000 3.1973300000 10.3125300000 -0.5123650000 -0.2877640000 0.5990560000
C 0.2924300000 0.5149600000 10.1857400000 -0.6669430000 0.3205020000 0.6840720000
C 3.2313000000 5.8898700000 10.1604800000 0.0403670000 -1.1854140000 -0.5106760000
C 1.5779400000 4.7616300000 17.7266900000 -1.1058530000 -0.7531940000 1.0193110000
C 2.9862500000 2.0679600000 17.7908100000 0.4939940000 0.6206250000 -0.4312080000
C 3.0435600000 7.3933600000 17.8374300000 -0.0811050000 0.1244180000 0.0533250000
C 1.5677100000 4.8569200000 12.7315600000 0.2192200000 0.3837080000 -0.7170540000
C 3.2050800000 2.1483400000 12.8577400000 0.0124450000 0.6494880000 -1.0416340000
C 3.2289400000 7.4787300000 12.6839300000 -0.3196340000 0.2703800000 -0.1784180000
C 3.0045400000 3.9421800000 15.2699700000 0.8698000000 -0.2528380000 -0.3543650000
C 1.4498800000 1.2695600000 15.2737200000 0.4834920000 -0.8485420000 0.4992620000
C 1.4904900000 6.5531800000 15.2053600000 -0.0110720000 0.8731910000 1.0005100000
C 1.5839200000 2.8858100000 20.3593200000 0.1142400000 0.3904540000 -0.9299210000
C 3.0611700000 0.2718600000 20.3362600000 -0.4403910000 -0.9210890000 0.3362790000
C 3.1334600000 5.5329200000 20.4024100000 -0.9599700000 -0.5597300000 0.0204690000
H 1.7450400000 4.7609700000 6.6326400000 0.0007380000 0.0598880000 0.0369430000
H 3.1933200000 2.4643200000 6.6439100000 0.0561750000 -0.0238840000 0.0847850000
H 3.2244400000 7.6902200000 6.5924400000 0.0194010000 -0.0225690000 0.0116130000
69
lattice="3.0729999540 0.0000000000 0.0000000000 1.5365000130 7.9838884020 0.0000000000 0.0000000000 0.0000000000 43.8005676270" Properties=species:S:1:pos:R:3:force:R:3 energy=-468.6567287200 virial="0.9130216218 0.7460908666 7.5836451612 0.7460908666 -13.0284933747 3.1791093069 7.5836451612 3.1791093069 -12.0321002771"
Ga 1.7547100000 4.4465200000 26.2084800000 -0.5188630000 0.6095970000 -0.5594500000
Ga 3.0802700000 7.4270500000 26.3656700000 -0.0442950000 0.7773900000 -0.2201650000
Ga 0.4662400000 2.0932900000 24.2934400000 -1.4651080000 0.3630040000 0.0209020000
Ga 1.4862300000 6.4072300000 23.3895700000 -0.4381550000 0.4492350000 1.0887850000
Ga 2.9417900000 0.2017300000 30.8322300000 1.5371570000 0.2718260000 -0.1649520000
Ga 1.5738100000 3.0836400000 31.0151200000 -0.6165590000 -1.4248320000 0.8397970000
Ga 3.2624900000 5.4232900000 29.2787800000 0.0885460000 0.9668120000 0.0413920000
Ga 3.2369000000 2.1063300000 27.9670500000 -0.9204530000 -3.2503990000 1.5236190000
Ga 2.4986600000 7.8182100000 38.3592600000 0.1987000000 -0.3540640000 -0.6131010000
Ga 4.3235100000 6.7816300000 35.2977300000 0.8850400000 0.5950140000 0.7412980000
Ga 1.7225600000 1.2682000000 33.6642400000 -1.7199240000 -1.6859140000 0.4677300000
Ga 3.0209800000 4.1179600000 33.9253800000 -0.5200900000 -0.5534840000 -0.0368790000
O 2.9376300000 7.3461500000 22.5991900000 0.9016190000 -0.8008180000 1.1207210000
O 1.8908900000 1.1864200000 24.9188200000 0.5148100000 -0.0842840000 0.7609190000
O 3.1255700000 1.9314400000 22.5504200000 -0.0951270000 0.3088760000 -0.7242710000
O 1.6021800000 6.5628900000 25.2983500000 0.0257290000 -0.2906080000 -0.6879090000
O 1.3521800000 4.7229000000 22.7395500000 0.6086240000 -0.1094690000 -0.3303700000
O 3.2472000000 3.9814800000 25.0467100000 0.5735000000 -1.1393650000 1.1833240000
O 1.6881100000 2.8649500000 27.5783400000 -0.0926520000 2.2957500000 -1.5794350000
O 1.7448500000 4.5662300000 29.9268800000 -0.8907090000 0.7662140000 -1.0645030000
O 3.1711200000 5.4685800000 27.3173000000 0.0333660000 0.0455460000 0.5922170000
O 2.8949700000 1.9891800000 29.9732400000 1.2673000000 0.1199300000 -1.4394990000
O 2.9724000000 0.2487900000 27.3812200000 1.2324970000 0.2027000000 0.1490110000
O 3.1303600000 7.0111500000 30.3886100000 -0.8745370000 -0.3460060000 -1.0158880000
O 1.4280800000 5.0309100000 34.4912300000 0.7258660000 -0.9578910000 0.1780430000
O 3.1759700000 2.0066200000 34.3315400000 1.2929880000 2.2123070000 0.9936340000
O 1.5403200000 1.0666400000 31.8574700000 -0.8109360000 0.6156330000 -0.3045220000
O 3.0783000000 7.4508500000 34.0915300000 -0.2867700000 -0.0026480000 0.2103320000
O 3.0282100000 3.6339000000 32.1497700000 0.5745850000 0.0729480000 -0.6098680000
O 2.7516100000 6.8936600000 36.5894000000 -0.4711970000 -0.0797720000 -0.1111660000
Si 1.7864400000 5.0148100000 10.8183200000 -0.6479030000 -0.7562050000 -0.3037730000
Si 3.3048300000 2.2623600000 11.0112200000 -0.3871530000 0.2419750000 -1.1334320000
Si 3.3746700000 7.6530600000 10.8521900000 -0.5535300000 -0.8328160000 -1.0364320000
Si 1.7174100000 3.1938000000 8.4596000000 0.2073740000 -0.7157080000 0.6187330000
Si 3.1727500000 0.5637300000 8.2552700000 0.9919950000 -0.5918620000 1.4411280000
Si 3.3577300000 5.8450400000 8.2338300000 -0.6121860000 0.8498510000 0.3950580000
Si 1.4505000000 4.8256400000 15.8774900000 0.7894910000 1.6092320000 1.6293180000
Si 2.9337800000 2.2479900000 15.8588200000 0.8289650000 -1.2973240000 0.8262570000
Si 2.9368900000 7.4909500000 15.9907000000 0.6124600000 0.2269490000 -1.6062380000
Si 1.5911400000 4.5788300000 21.1090700000 -1.4430590000 -0.3125920000 -1.0624190000
Si 3.1533800000 1.9465800000 20.9163200000 -0.9790460000 0.3490110000 1.0380300000
Si 3.0555200000 7.2747900000 20.9124300000 -0.4670280000 -0.2894700000 -0.4392480000
Si 3.1085600000 3.9668600000 13.4028800000 0.5921750000 0.3993270000 -1.0503290000
Si 1.6184900000 1.2019500000 13.4221100000 -0.1061100000 1.4041520000 0.2491410000
Si 1.6563100000 6.5950800000 13.3821200000 -0.6750380000 0.4755340000 0.1700950000
Si 1.5299000000 2.9290400000 18.3725700000 -1.2051820000 0.5801010000 1.4818430000
Si 3.0635000000 0.2275000000 18.4195100000 -0.6367260000 1.0776240000 0.3766880000
Si 3.0904300000 5.5463800000 18.5050600000 -1.3467770000 0.1291600000 0.1027280000
C 1.8231600000 4.9206400000 7.7357600000 -0.3982660000 0.0073850000 -0.3835220000
C 3.2482300000 2.3161900000 7.7880800000 0.0589430000 1.0674860000 0.0302870000
C 3.1831000000 7.6797200000 7.6433000000 0.3806500000 -0.8496530000 0.0671430000
C 1.7590500000 3.1656500000 10.4270400000 0.1515170000 0.4082050000 -2.0108920000
C 0.3098500000 0.5455800000 10.2210000000 -0.9074380000 -0.0002110000 -0.1742210000
C 3.3077000000 5.8799100000 10.1240000000 0.5503180000 -0.0251830000 0.7351490000
C 1.4851600000 4.7220300000 17.8003900000 1.1054410000 -0.0366760000 -0.3034400000
C 3.0027500000 2.0893300000 17.7739800000 1.2970590000 -1.0478220000 -0.5058440000
C 3.0438800000 7.3580000000 17.8049300000 0.2540960000 -0.2855150000 1.0529590000
C 1.6366300000 4.8831000000 12.6633000000 -0.2657020000 -0.3591210000 1.8970160000
C 3.1755300000 2.1702000000 12.8540800000 -0.1398160000 -0.3453300000 0.0157890000
C 3.1934000000 7.4824900000 12.6965600000 0.2825270000 0.0549560000 0.9895230000
C 3.0192800000 4.0466500000 15.2936500000 -0.7618070000 -1.5126910000 -1.0194070000
C 1.4164800000 1.3254800000 15.2989000000 0.2048800000 -0.7375750000 0.0755530000
C 1.4153900000 6.6283700000 15.3127400000 0.5439750000 -0.0270260000 -0.5946250000
C 1.5656000000 2.8491900000 20.2992900000 0.6729160000 0.1077640000 0.2124040000
C 3.0433300000 0.1359100000 20.3449800000 0.4582570000 0.8031000000 -0.8228390000
C 3.0590500000 5.4672500000 20.4637400000 1.0501460000 0.5771410000 -1.3665890000
H 1.8220700000 4.7152400000 6.6488300000 -0.0187180000 0.1587080000 -0.0432360000
H 3.2884800000 2.4270600000 6.6895600000 -0.1148880000 0.0325290000 -0.0199220000
H 3.2460900000 7.7544700000 6.5400100000 -0.0617670000 -0.1306390000 0.0218190000
69
lattice="3.0729999540 0.0000000000 0.0000000000 1.5365000130 7.9838884020 0.0000000000 0.0000000000 0.0000000000 43.8005676270" Properties=species:S:1:pos:R:3:force:R:3 energy=-467.5591788500 virial="-3.3132012250 -4.9513400526 7.6332253662 -4.9513400526 -15.9588565393 3.0577075603 7.6332253662 3.0577075603 -1.2477550785"
Ga 1.7348900000 4.5541400000 26.0686600000 -1.1587630000 -0.3277190000 0.4144070000
Ga 3.0409700000 7.4181200000 26.4369800000 0.4012030000 0.9577960000 0.1977850000
Ga 0.4465400000 2.0753800000 24.2385700000 -0.2513330000 -0.7796000000 0.4853120000
Ga 1.4224200000 6.4467200000 23.2920900000 1.4137790000 -0.9477790000 2.3300980000
Ga 3.0545200000 0.1440500000 30.7985200000 -0.1473950000 1.6810020000 -0.6982830000
Ga 1.6189600000 3.0213400000 31.0976600000 0.9437890000 0.2212380000 -1.5235700000
Ga 3.2151200000 5.5226800000 29.2947800000 -1.6717040000 -0.8451640000 -0.8260200000
Ga 3.1485200000 2.1083200000 27.9567400000 -0.2028340000 0.5614110000 -2.4597430000
Ga 2.5417700000 7.8188100000 38.2870900000 0.0853600000 0.0484960000 0.2560490000
Ga 4.3924900000 6.9107300000 35.3484700000 -1.0611520000 -1.6714110000 0.1214950000
Ga 1.6523800000 1.1231700000 33.8600500000 -0.0079260000 1.3536150000 -0.5405790000
Ga 3.0263000000 4.1119500000 33.8673300000 1.0273200000 -1.0718980000 0.5338980000
O 3.0372400000 7.2041200000 22.5943500000 -1.1803190000 0.7977000000 -1.3830380000
O 1.9540100000 1.1674600000 24.8235700000 -0.9756940000 -0.7646670000 0.6959260000
O 3.0038300000 1.9406600000 22.5023700000 0.2249190000 0.0054550000 0.6455500000
O 1.5519300000 6.6407900000 25.2855800000 0.1402270000 -1.4828990000 -1.0163510000
O 1.5424700000 4.7404800000 22.5988300000 -0.0524810000 0.1781780000 -0.0067170000
O 3.0703900000 3.6283100000 25.1629800000 1.6363840000 2.3298890000 -0.1653600000
O 1.5931000000 3.0565300000 27.2223300000 -0.1459520000 -2.0003870000 2.2960180000
O 1.5597000000 4.6531800000 29.9444500000 1.6475580000 -0.4752870000 0.1409740000
O 3.2092200000 5.5068700000 27.3996100000 -0.4234190000 0.8331250000 -1.0838430000
O 2.7837100000 1.9626800000 29.7090400000 0.3507850000 -0.2792030000 2.4341240000
O 2.9982300000 0.2122200000 27.5199900000 0.6866550000 -0.0386510000 -0.9484410000
O 3.0581100000 7.1182100000 30.2114200000 -0.0555760000 0.8723380000 0.6168710000
O 1.5300600000 4.8331300000 34.5912800000 -0.9036040000 0.7189670000 0.1018510000
O 3.2268800000 2.0657800000 34.5456000000 -0.8326660000 0.0897620000 -0.6892940000
O 1.6258900000 1.2344600000 31.8901400000 -0.1596620000 -1.4522960000 0.5761430000
O 2.8263300000 7.3354200000 34.2598200000 1.0561040000 0.4910390000 -2.0298400000
O 3.2167000000 3.5850500000 32.0884200000 -1.0069130000 0.6103850000 0.3560520000
O 2.7009400000 6.9983100000 36.5579800000 0.7618830000 -0.3073140000 1.6120940000
Si 1.9333900000 4.9392100000 10.8749200000 -0.8458580000 0.8991010000 0.5589420000
Si 3.2714600000 2.2963800000 10.9082600000 0.2792580000 -0.6324700000 -0.2175600000
Si 3.2877600000 7.6464000000 10.9031900000 -0.1855710000 -0.4881550000 0.3540510000
Si 1.8174900000 3.1859200000 8.4527600000 -0.1901780000 0.6497130000 -1.9158290000
Si 0.1972100000 0.5242100000 8.3011100000 0.3209960000 0.2742780000 -0.2924900000
Si 3.4035400000 5.8757800000 8.2808500000 -0.1985370000 -0.7684410000 0.6278800000
Si 1.4167500000 4.9593600000 16.0408000000 0.2707570000 -2.1527410000 -2.1629860000
Si 2.9656400000 2.2230000000 15.9246000000 0.3737100000 0.5550120000 0.2524850000
Si 2.9381400000 7.6005500000 15.9280800000 0.8370120000 -1.6919650000 0.6684100000
Si 1.5378000000 4.5391000000 20.9576700000 0.9997050000 0.2065950000 0.7766190000
Si 3.0890900000 1.8758200000 20.9266000000 0.7215770000 1.0034600000 0.0870670000
Si 3.0764000000 7.1966600000 20.8147700000 0.5373610000 1.2407030000 0.6216730000
Si 3.2263300000 3.9538200000 13.3534000000 -1.0265460000 -0.0323570000 1.9727670000
Si 1.5134900000 1.3290800000 13.4906800000 0.7029630000 -0.6040250000 -1.3965480000
Si 1.5843800000 6.6205100000 13.4978200000 0.4317930000 0.0905420000 -1.1517600000
Si 1.5883000000 2.8825700000 18.4436000000 0.0504480000 -0.4471090000 -0.0402230000
Si 3.0629300000 0.1634400000 18.3983600000 0.1158800000 0.5145820000 0.1775590000
Si 2.9955400000 5.5020000000 18.5272100000 1.7586910000 0.5554250000 -1.5207880000
C 1.8618300000 4.9444000000 7.7026200000 -0.1139830000 0.0743680000 0.7518720000
C 3.3472600000 2.3567800000 7.8202200000 -0.0581260000 -0.7836160000 -0.2286310000
C 3.2764800000 7.6147300000 7.6416500000 0.1462770000 0.5624920000 0.6514870000
C 1.7859100000 3.1845900000 10.2441100000 -0.3901940000 0.0570840000 1.9991900000
C 0.1985700000 0.5409900000 10.2094600000 0.3733170000 -0.1733630000 0.4796500000
C 3.4962200000 5.8849100000 10.2557400000 -1.1426110000 -0.5674960000 -0.5440280000
C 1.5320900000 4.7138300000 17.8600400000 -1.3382370000 -1.1054500000 0.1876910000
C 3.1493900000 1.9616900000 17.7831400000 -1.0542870000 0.7631730000 0.3501510000
C 3.0573900000 7.2500400000 17.8422700000 -0.2044390000 1.2557510000 -0.8501520000
C 1.6881300000 4.8361900000 12.8334200000 0.2841280000 0.9039940000 -1.6192340000
C 3.0871200000 2.1575500000 12.7935500000 0.3784520000 0.8421880000 -0.2536570000
C 3.1607000000 7.5362300000 12.8680100000 -0.4706490000 -0.0096800000 -1.0493610000
C 2.9451100000 4.0053400000 15.2948300000 0.9260400000 0.5293180000 0.8384710000
C 1.4229900000 1.3558200000 15.3158500000 0.3738780000 0.0177700000 0.4038750000
C 1.4269300000 6.6907900000 15.3399900000 -0.0273130000 0.1624170000 0.4501200000
C 1.5944400000 2.7836900000 20.3405900000 -0.8314960000 0.3869740000 -0.8788100000
C 0.0392400000 0.1401500000 20.2795300000 -0.7645700000 -0.6907870000 0.5750420000
C 3.1474900000 5.4621700000 20.3141600000 -1.3631560000 -0.6497060000 0.8284590000