69
lattice="3.0729999540 0.0000000000 0.0000000000 1.5365000130 7.9838884020 0.0000000000 0.0000000000 0.0000000000 43.8005676270" Properties=species:S:1:pos:R:3:force:R:3 energy=-470.7116746200 virial="0.5453017679 1.6282992496 4.2279264957 1.6282992496 -11.2088421677 -2.4770114821 4.2279264957 -2.4770114821 24.3600317938"
Ga 1.6641400000 4.7380800000 26.4303300000 -0.0141460000 0.5051460000 0.3044040000
Ga 3.2315800000 7.9015600000 26.4218400000 0.2664800000 -0.6416800000 -0.5652030000
Ga 3.2784800000 2.3812900000 24.4815700000 0.4252510000 -0.0954050000 1.4131160000
Ga 1.4253600000 6.3617100000 23.6710600000 -0.1306270000 2.2128070000 1.1244200000
Ga 3.1111500000 0.3209800000 30.9371900000 -0.6122440000 0.1129520000 -0.7439620000
Ga 1.5431500000 3.2654700000 31.0959100000 0.2628910000 -1.1422000000 -1.2960360000
Ga 3.1061300000 5.7369800000 29.2648400000 -0.4433250000 1.5057690000 0.7734450000
Ga 3.1525600000 2.2063000000 28.1784500000 1.2212080000 -0.6982110000 0.4276430000
Ga 2.7106800000 3.9957200000 35.4251100000 0.6685270000 -0.8851690000 -0.0444450000
Ga 4.3768200000 6.8397800000 35.6489300000 0.2229490000 -0.2174940000 0.8482150000
Ga 1.5046400000 1.2466400000 33.8054600000 -1.9521850000 1.3975820000 0.3740040000
Ga 3.1180900000 5.7142400000 32.6087700000 -0.3905950000 -0.1423690000 0.2327020000
O 2.9320500000 7.2872800000 22.8858600000 0.4391320000 0.5661730000 0.4368380000
O 1.7728100000 1.4079300000 25.0801900000 -0.6586760000 0.1697640000 0.1186980000
O 3.0780800000 2.4566300000 22.7536900000 -0.1655530000 -0.4082170000 1.1526520000
O 1.6406700000 6.7836800000 25.4568000000 -0.2825410000 -0.3169910000 -0.1948830000
O 1.4188400000 4.8450800000 22.8546100000 0.0314060000 -0.8973700000 -0.9898930000
O 3.2061100000 4.1191500000 25.3911500000 0.1740770000 -0.3360780000 -0.2392720000
O 1.6935200000 3.0092300000 27.5194100000 -1.4678870000 0.6131450000 0.1498310000
O 1.5477600000 4.8622800000 29.8165600000 0.3280590000 -0.3607730000 0.5021520000
O 3.1366900000 5.7662800000 27.4635000000 0.1214920000 -0.4622050000 -1.3853370000
O 2.9767400000 2.2498100000 30.1056300000 0.6380810000 -0.1572850000 -1.7125260000
O 0.1892200000 0.4155500000 27.4810200000 -0.4072580000 0.8653900000 -0.0112210000
O 3.0484100000 7.6237500000 29.8868900000 0.5639180000 -0.9297870000 0.3767140000
O 1.5477400000 6.6996200000 32.1572500000 0.4784450000 -0.3965090000 0.0252200000
O 2.9391800000 0.4609500000 34.4533700000 1.6492140000 -0.6110380000 0.0822710000
O 1.4970000000 1.3334300000 31.9293100000 0.0815380000 -0.3411390000 0.9552300000
O 3.1466400000 5.6209900000 34.4926300000 -0.2930070000 0.2786840000 -0.8770410000
O 3.1143300000 3.8799800000 31.9908500000 -0.5207110000 1.7972570000 1.3932520000
O 1.2935900000 2.9271500000 34.7557600000 -0.2800170000 0.1713450000 -0.1655920000
Si 1.6225000000 4.8169500000 11.2469500000 -1.7037890000 -0.2286660000 -0.7379880000
Si 3.1950300000 2.1683200000 11.1638400000 -0.6275350000 0.3079420000 0.5463670000
Si 3.1491900000 7.4160500000 11.2528500000 0.3604180000 1.8882920000 0.3198670000
Si 1.5601500000 3.0805800000 8.6876700000 0.6367740000 -0.9357200000 -0.0257350000
Si 0.1823300000 0.3765800000 8.7581200000 -1.7273030000 0.5155570000 0.0861530000
Si 3.0272800000 5.6874500000 8.7436000000 1.3010940000 0.8195140000 0.0496000000
Si 1.4320900000 5.0199500000 16.1954100000 0.6566750000 -1.6248200000 0.5104850000
Si 2.9619300000 2.3239600000 16.2086000000 2.3393380000 0.4562960000 1.2742980000
Si 3.0662900000 7.6821900000 16.1595100000 -0.6200280000 -0.9866680000 0.0641410000
Si 1.4082500000 4.9804200000 21.1993700000 0.2703130000 -1.4240840000 -0.3532060000
Si 3.0435600000 2.3484600000 21.1917200000 -0.6441570000 -0.2505230000 -0.8086060000
Si 2.9774400000 7.6041500000 21.2170400000 0.1626820000 -0.6500270000 -0.4295620000
Si 3.0166000000 3.9947500000 13.7276600000 0.7961050000 -0.5713900000 -0.8668770000
Si 1.5605400000 1.4401600000 13.7395300000 -2.1711500000 -2.5900380000 -0.4842840000
Si 1.6170500000 6.5853000000 13.6946500000 -0.4390830000 1.9114150000 0.4433250000
Si 1.4960600000 3.2278800000 18.7453700000 -0.2357760000 -0.5676240000 -0.7153780000
Si 2.9428600000 0.5628600000 18.7589600000 1.2371070000 -0.4738330000 -0.8647740000
Si 3.0672600000 5.9214700000 18.7050600000 -0.9770110000 -0.5496560000 -1.0639820000
C 1.5307300000 4.8260100000 8.1507300000 -0.7592900000 0.3782430000 -1.1495070000
C 3.1273600000 2.1602500000 8.1253900000 -0.4495800000 0.1469740000 0.0675500000
C 3.1938600000 7.4881900000 8.1745300000 0.7322100000 -0.6564840000 0.9044920000
C 1.6546200000 3.0967700000 10.5290300000 -0.3806640000 -0.8446630000 1.2481810000
C 0.1189500000 0.3841300000 10.6457800000 -0.3558720000 -0.4833650000 -0.5279600000
C 3.0590400000 5.6935400000 10.6088600000 1.6235740000 -0.0282170000 0.1609020000
C 1.4903600000 4.9720600000 18.0838100000 0.3306320000 0.7238750000 -0.2430020000
C 3.0213500000 2.2791300000 18.1356000000 -0.0671630000 1.5270190000 -0.7159180000
C 3.0085100000 7.7212400000 18.0192300000 -0.6001020000 -1.1053550000 1.5022200000
C 1.5286200000 4.8406400000 13.0778200000 -0.4877300000 0.0169300000 0.2733830000
C 2.9873500000 2.1925700000 13.0675100000 3.0244940000 1.7491040000 -0.6008090000
C 3.1623500000 7.5452100000 13.1369300000 -0.4246050000 -0.4306480000 -0.2714290000
C 2.9984000000 4.0703100000 15.5462200000 -0.2358800000 0.5273900000 1.3986570000
C 1.5506100000 1.4571800000 15.5880300000 -2.1623300000 -0.4299950000 -0.2585030000
C 1.4937600000 6.7160900000 15.5867300000 0.6995680000 1.2030020000 -0.2693290000
C 1.4749600000 3.1993600000 20.5903600000 0.4927990000 0.2871360000 -0.3001620000
C 2.9953200000 0.5009100000 20.6540700000 -0.3693830000 0.5026910000 0.3321540000
C 2.9486400000 5.8282600000 20.5529200000 0.3553340000 0.9102620000 0.6067030000
H 1.4435400000 4.8634500000 7.0390000000 0.2185140000 0.0252140000 0.2320960000
H 3.0210100000 2.2121500000 7.0344200000 0.2961880000 -0.2668200000 -0.3393860000
H 3.2390900000 7.4625000000 7.1122200000 -0.0492840000 0.0456470000 -1.4595710000
69
lattice="3.0729999540 0.0000000000 0.0000000000 1.5365000130 7.9838884020 0.0000000000 0.0000000000 0.0000000000 43.8005676270" Properties=species:S:1:pos:R:3:force:R:3 energy=-470.7702246300 virial="1.4288717285 0.1384248202 3.8405945585 0.1384248202 -12.9505011366 -1.6403589369 3.8405945585 -1.6403589369 22.7795688568"
Ga 1.6654900000 4.7353600000 26.4193700000 0.0670680000 0.4896470000 0.3198880000
Ga 3.2265800000 7.8888700000 26.4230100000 0.2254350000 -0.5988540000 -0.7188310000
Ga 3.2860700000 2.3817800000 24.4824500000 0.1636820000 -0.2350270000 0.8311650000
Ga 1.4243600000 6.3754600000 23.6646500000 -0.1277720000 1.5032300000 0.8422380000
Ga 3.0978100000 0.3347400000 30.9350600000 -0.5033690000 -0.0084140000 -0.5446990000
Ga 1.5366700000 3.2633600000 31.1127000000 0.5099310000 -0.9904640000 -1.4690250000
Ga 3.1150800000 5.7463400000 29.2673700000 -0.4348000000 1.2491890000 0.6743780000
Ga 3.1789500000 2.2077700000 28.1768500000 1.1179270000 -0.5837630000 0.3962690000
Ga 2.7046300000 3.9987600000 35.4392700000 0.6548740000 -0.9914200000 -0.0085880000
Ga 4.3793000000 6.8452700000 35.6527600000 0.2446020000 -0.1962520000 0.9095970000
Ga 1.4794300000 1.2480000000 33.8146400000 -1.3526100000 1.2934950000 0.5999910000
Ga 3.1191300000 5.7096100000 32.6193000000 -0.3921740000 0.1069320000 0.3813390000
O 2.9332100000 7.2800000000 22.8968100000 0.4736600000 0.6937830000 0.3642110000
O 1.7585300000 1.3803400000 25.0492900000 -0.3951480000 0.2916390000 0.2249880000
O 3.0610500000 2.4221600000 22.7316800000 -0.0641380000 -0.3046220000 3.0776580000
O 1.6530600000 6.7609200000 25.4592900000 -0.3342770000 -0.2408120000 -0.1032250000
O 1.4036100000 4.8395100000 22.8335400000 0.0594620000 -0.4562520000 -0.1561470000
O 3.2186300000 4.1180300000 25.3700000000 0.0757640000 -0.3816490000 -0.1108620000
O 1.7120200000 2.9913300000 27.5154800000 -1.4539560000 0.7276470000 0.0262150000
O 1.5589700000 4.8692200000 29.7977400000 0.2580680000 -0.5169630000 0.7151920000
O 3.1324500000 5.7407200000 27.4620300000 0.1649830000 -0.3141990000 -1.3709410000
O 2.9937500000 2.2724000000 30.1017600000 0.5896760000 -0.3832950000 -1.5082820000
O 0.1779200000 0.4302900000 27.4650100000 -0.2932790000 0.6342530000 0.0747850000
O 3.0380800000 7.5962700000 29.9117500000 0.5751880000 -0.4916300000 0.3432650000
O 1.5474800000 6.7046300000 32.1739100000 0.4733060000 -0.4155950000 0.0115030000
O 2.9476600000 0.4632500000 34.4491200000 1.0823010000 -0.5080400000 0.0248600000
O 1.5151000000 1.3486900000 31.9476500000 -0.0233040000 -0.3984310000 0.5546380000
O 3.1395800000 5.6218800000 34.5224900000 -0.2880350000 0.3488750000 -1.1647260000
O 3.1221700000 3.8951800000 31.9975900000 -0.7207470000 1.6415490000 1.3424830000
O 1.2914900000 2.9345700000 34.7514300000 -0.2906730000 0.1868830000 -0.1347400000
Si 1.6072300000 4.8341400000 11.2429900000 -1.2392040000 -0.7887240000 -0.9905800000
Si 3.1708700000 2.1593600000 11.1848300000 -0.2221910000 1.0306610000 -0.0486410000
Si 3.1460000000 7.4216500000 11.2393800000 0.8302570000 1.9089460000 0.3897500000
Si 1.5579600000 3.0719700000 8.6799000000 0.3241950000 -1.0051910000 0.0028130000
Si 0.1641900000 0.3672500000 8.7485400000 -1.7001140000 1.3441990000 0.2962970000
Si 3.0339800000 5.6897700000 8.7452700000 1.0370440000 0.9129440000 -0.0420630000
Si 1.4628200000 5.0170100000 16.1798300000 0.0226890000 -1.5681600000 0.6544160000
Si 2.9906000000 2.3257100000 16.1982200000 2.0260610000 0.6095110000 1.6594820000
Si 3.0546300000 7.6702200000 16.1487500000 -0.5038220000 -0.2424280000 0.6190930000
Si 1.4018200000 4.9807600000 21.1951200000 0.4913470000 -1.6082200000 -0.7208580000
Si 3.0323100000 2.3339000000 21.2001200000 -0.2806520000 -0.1248830000 -2.5858420000
Si 2.9910000000 7.5957100000 21.2225000000 -0.1311730000 -0.4506280000 -0.7097070000
Si 3.0302100000 3.9976600000 13.7121200000 0.3554080000 -0.4987000000 -0.7555840000
Si 1.5565600000 1.4523800000 13.7409700000 -2.0900850000 -2.7108540000 -0.5829630000
Si 1.6162900000 6.5885000000 13.6935400000 -0.3685340000 1.2850070000 0.3174960000
Si 1.4960900000 3.2344700000 18.7536000000 -0.1501790000 -1.0032150000 -1.4511520000
Si 2.9579400000 0.5558400000 18.7684400000 0.7203120000 -0.8429040000 -1.2247130000
Si 3.0684100000 5.9078000000 18.7058100000 -1.0236700000 -0.1001520000 -0.9855800000
C 1.5255200000 4.8313800000 8.1444000000 -0.4613000000 0.3761870000 -0.6182660000
C 3.1071000000 2.1433500000 8.1043700000 -0.0246890000 0.7370280000 -0.3205280000
C 3.1812900000 7.5250700000 8.1927600000 0.7920030000 -1.8231040000 -1.7849200000
C 1.6480800000 3.0845800000 10.5231700000 -0.5346240000 -0.4217290000 1.4504760000
C 0.1544500000 0.4157300000 10.6447000000 -1.0770840000 -1.2428280000 -0.6713640000
C 3.0736100000 5.6984300000 10.6093100000 1.1744130000 -0.0373420000 0.0683890000
C 1.4930800000 4.9856200000 18.0733300000 0.3944460000 0.2028210000 -0.1321730000
C 3.0247700000 2.2479300000 18.1398500000 -0.0437400000 2.4597820000 -0.9197670000
C 2.9921200000 7.7147000000 18.0344100000 -0.0834940000 -1.1331370000 1.0693810000
C 1.5193100000 4.8204400000 13.0655100000 -0.1130910000 0.5723810000 0.5284810000
C 2.9801700000 2.2131100000 13.0625700000 2.9783150000 1.1795130000 -0.3429260000
C 3.1683500000 7.5059900000 13.1187500000 -0.5836500000 0.4309850000 -0.0076400000
C 2.9870100000 4.0794800000 15.5311100000 0.3833810000 0.4629280000 1.5003670000
C 1.5564000000 1.4927000000 15.5880200000 -2.1093160000 -1.3280300000 -0.3865460000
C 1.4898400000 6.7215100000 15.5919400000 0.7104120000 1.1256080000 -0.6179320000
C 1.4828600000 3.1912600000 20.5668900000 0.0755540000 0.3517100000 0.6154800000
C 2.9954500000 0.4832300000 20.6383100000 -0.1196560000 0.6218740000 0.9984010000
C 2.9544400000 5.8357700000 20.5661500000 0.1663070000 0.5976940000 0.2718900000
H 1.4724000000 4.9066100000 7.0478800000 0.1164980000 -0.0467830000 -0.2151710000
H 3.0819100000 2.2913500000 6.9976200000 0.1278880000 -0.5467850000 0.2057140000
H 3.1694300000 7.4748600000 7.0461300000 0.0720960000 0.1625780000 1.0423960000
69
lattice="3.0729999540 0.0000000000 0.0000000000 1.5365000130 7.9838884020 0.0000000000 0.0000000000 0.0000000000 43.8005676270" Properties=species:S:1:pos:R:3:force:R:3 energy=-472.0342029700 virial="-5.0797509056 0.3310109170 5.1578303383 0.3310109170 -17.1874355077 -1.7830160500 5.1578303383 -1.7830160500 6.4379279153"
Ga 1.6871900000 4.7222300000 26.3486600000 0.2206180000 0.1572040000 0.7759870000
Ga 3.1863200000 7.7699800000 26.3485700000 0.0128020000 0.0446180000 0.7977460000
Ga 3.3188100000 2.3242000000 24.5487500000 -0.1942510000 -0.8352140000 0.5185970000
Ga 1.4293200000 6.5074600000 23.6364300000 0.2994030000 0.6998580000 -0.2604030000
Ga 2.9977700000 0.3949800000 30.9290600000 1.0151970000 -0.2347410000 0.7622930000
Ga 1.5247600000 3.2361500000 31.1365900000 -0.2008860000 0.0280380000 -0.3834290000
Ga 3.1655800000 5.8151800000 29.2893500000 -0.3158230000 -0.3982590000 0.6843920000
Ga 3.3608000000 2.2212600000 28.1237900000 -0.2191860000 -0.2952980000 -0.0397520000
Ga 2.7179100000 3.9604900000 35.5253600000 0.1356740000 0.2137420000 -0.1948140000
Ga 1.3498400000 6.8499300000 35.7511700000 0.0181330000 -0.3420830000 0.2416480000
Ga 1.3124400000 1.3528600000 33.9502800000 -0.7613800000 -0.1905260000 -0.8484940000
Ga 3.1139200000 5.7835000000 32.7284200000 -0.2099230000 -0.5513460000 -0.4738140000
O 2.9965600000 7.4519400000 22.8983500000 -0.2048090000 -0.3834050000 -0.0848240000
O 1.7293900000 1.2661400000 25.1044600000 -0.0208070000 0.8029780000 -0.1022310000
O 2.8825000000 2.1196500000 22.8349500000 0.0929050000 0.5464740000 -1.3356390000
O 1.6141700000 6.6394100000 25.4564300000 0.0554030000 0.1254950000 -0.4282250000
O 1.3771800000 4.9417000000 22.8032500000 0.2823470000 -0.7362180000 -0.3762150000
O 3.2554800000 4.0444800000 25.3110000000 -0.0216390000 0.0233880000 0.0956320000
O 1.8234300000 3.1047700000 27.5141800000 -0.4443600000 -0.3492430000 0.3475790000
O 1.6070100000 4.8535100000 29.8704900000 0.0419210000 0.3698180000 -0.2094670000
O 3.2026200000 5.6799900000 27.4284400000 -0.0903430000 0.3413680000 -0.6251910000
O 3.2321300000 2.1874200000 30.0369200000 -0.2591050000 0.1579730000 -1.0046840000
O 0.1191800000 0.4457300000 27.3839900000 0.3489980000 0.1972380000 0.2167790000
O 3.0769000000 7.5477600000 30.0992100000 -0.4590500000 -0.4617400000 -1.0077570000
O 1.5712300000 6.7011400000 32.2202100000 -0.0826160000 -0.1209250000 0.0200450000
O 2.7845200000 0.4078300000 34.4513400000 1.0819090000 0.4103590000 0.2627670000
O 1.5839000000 1.3949400000 32.0155200000 -0.3907970000 -0.2416220000 0.8164820000
O 2.9712300000 5.7158200000 34.6078000000 -0.0760440000 -0.1302420000 -0.0023330000
O 3.0263200000 3.8898900000 32.0946700000 0.5140610000 1.2523440000 0.4979430000
O 1.1865300000 3.0409800000 34.7348800000 0.1337660000 0.0017820000 0.2499180000
Si 1.5562200000 4.8517000000 11.1463900000 -0.8155930000 0.4591870000 0.0803900000
Si 3.0257100000 2.2067100000 11.1955500000 0.2851240000 0.8735140000 -0.2773330000
Si 3.1160600000 7.5603900000 11.1820400000 -0.0613990000 -0.0564890000 -0.8493250000
Si 1.5470900000 3.0539400000 8.6395500000 -0.2501370000 -0.6852810000 0.4091150000
Si 3.0303900000 0.4008500000 8.6554500000 0.1833700000 0.4648100000 0.0265300000
Si 3.1326900000 5.7189600000 8.6555700000 -0.0953380000 0.4994350000 0.2583720000
Si 1.6048300000 4.9744000000 16.1735300000 -0.4041010000 -1.2584460000 -0.3956940000
Si 3.1123500000 2.2929500000 16.1818800000 1.0702540000 -0.0703530000 0.4525830000
Si 3.0451500000 7.6268600000 16.2364700000 0.1320490000 -0.3706200000 -0.8544640000
Si 1.4684900000 4.8450200000 21.1512700000 -0.2870750000 0.4868390000 0.1264550000
Si 2.9864000000 2.2770500000 21.2071200000 -0.0848870000 -1.2188150000 0.4795140000
Si 3.0183700000 7.5515200000 21.1782000000 0.0416140000 -0.4837730000 -0.6764060000
Si 3.1306700000 4.0436000000 13.6894700000 -0.2956170000 -0.4557340000 -1.0141800000
Si 1.5759600000 1.2931500000 13.7070800000 -1.6629650000 1.4086560000 0.3110690000
Si 1.5184600000 6.7484200000 13.6705300000 0.5446290000 -1.6893310000 0.5295770000
Si 1.5040500000 3.1872600000 18.6356900000 -0.1040640000 -1.2106400000 0.6161450000
Si 3.0669500000 0.5088000000 18.6957800000 0.1239100000 -0.7588910000 0.2681910000
Si 3.0098200000 5.7970300000 18.6618500000 0.0013520000 0.7546230000 0.3603970000
C 1.6244400000 4.7930600000 8.1015400000 -0.7254850000 1.0362920000 -1.0836970000
C 3.0707200000 2.1624000000 8.0518300000 0.1823260000 0.4287990000 -0.0211180000
C 3.0175300000 7.5328000000 8.0387500000 0.4851440000 -1.1078950000 1.2361530000
C 1.4934400000 3.0849000000 10.4991000000 0.2050120000 0.0340200000 1.2762350000
C 3.1368700000 0.4981800000 10.5476600000 -0.8472350000 -1.5211510000 -0.0867680000
C 3.0368500000 5.7775000000 10.5506300000 1.2939490000 0.0479710000 -0.2907260000
C 1.4635200000 4.9327400000 18.0320100000 0.6904200000 0.1120480000 -0.1853840000
C 3.0483200000 2.2332900000 18.0882500000 0.0834300000 1.4827680000 -0.9670370000
C 3.0858700000 7.6208500000 18.0574000000 -0.6543150000 -0.6744490000 0.8645000000
C 1.5968400000 4.9410400000 13.0178600000 -0.3746030000 -0.3457410000 0.6908240000
C 2.9966900000 2.1911900000 13.0780900000 2.1823820000 1.0928020000 -0.2359820000
C 3.0772000000 7.5699600000 13.0377600000 -0.2607160000 -0.0637750000 0.3415150000
C 3.1565000000 4.0463000000 15.5332500000 -0.4093900000 0.4898870000 0.9744900000
C 1.6472900000 1.4036800000 15.6075000000 -1.8378480000 -0.7045850000 -0.8382190000
C 1.4868700000 6.6992500000 15.6063300000 0.7316350000 1.3153750000 -0.9650930000
C 1.4420200000 3.0863700000 20.5111400000 0.4372610000 0.7086760000 0.9300280000
C 3.0276800000 0.4359100000 20.5771600000 -0.1572430000 0.5530230000 0.7495690000
C 2.9971500000 5.7450900000 20.5366100000 0.1830410000 0.4933360000 0.1138990000
H 1.5988700000 4.7991100000 6.9862700000 0.0250670000 0.0525410000 0.1837170000
H 3.0675500000 2.2619900000 6.9596700000 -0.0364030000 -0.2649160000 -0.3289660000
H 2.9550500000 7.5351000000 6.9694800000 0.1803240000 0.0444700000 -1.1194170000
69
lattice="3.0729999540 0.0000000000 0.0000000000 1.5365000130 7.9838884020 0.0000000000 0.0000000000 0.0000000000 43.8005676270" Properties=species:S:1:pos:R:3:force:R:3 energy=-471.2630520100 virial="-7.0448226246 -5.5991826991 -1.5213516888 -5.5991826991 -24.3530159802 4.3229485147 -1.5213516888 4.3229485147 -20.5650869749"
Ga 1.8290100000 4.6472300000 26.4509100000 -0.4623300000 0.8165030000 -0.4420830000
Ga 3.2753800000 7.6210300000 26.4941600000 0.1916880000 0.2460900000 0.1995170000
Ga 3.1845100000 2.2510700000 24.7284300000 0.1367440000 -1.1141910000 -1.0302420000
Ga 1.6163100000 6.7198200000 23.5440500000 0.4327140000 -0.7532810000 0.3955780000
Ga 0.1209400000 0.4222900000 31.0992800000 -0.8740900000 -0.7482990000 0.5290290000
Ga 1.5224900000 3.3076100000 31.0068600000 -0.1071490000 0.1842400000 0.9057110000
Ga 3.0767400000 5.9633800000 29.3067300000 -0.0929740000 -1.1923270000 0.6956380000
Ga 3.2773200000 2.1494100000 28.2286500000 -0.0727150000 -0.5580370000 -1.0599650000
Ga 2.8115900000 4.1183300000 35.6049800000 0.0047370000 -0.6077950000 -0.5033770000
Ga 1.4322000000 6.8539100000 36.1390500000 -0.2000950000 0.1454450000 -0.6546590000
Ga 1.1119500000 1.3491100000 34.1387200000 0.5856870000 0.3644360000 -0.6836920000
Ga 2.9188200000 5.7840200000 32.8055200000 0.4233470000 0.5794540000 -0.2762660000
O 3.1876600000 7.4904800000 22.7469300000 -0.4938870000 0.0683570000 -0.1114170000
O 1.6520000000 1.1830900000 25.2695000000 0.3075390000 0.7785700000 -0.3691820000
O 3.2747800000 2.1130300000 22.8787200000 -0.2433630000 0.0861600000 0.6570180000
O 1.6812100000 6.6073600000 25.4104200000 -0.0023410000 0.4268470000 -0.0752170000
O 1.6033900000 5.0790100000 22.7467800000 0.1174770000 -0.2699350000 0.4209270000
O 3.3322000000 3.9627100000 25.4672400000 -0.0431710000 0.1313810000 -0.1287410000
O 1.7364700000 3.0130900000 27.4958700000 0.1501310000 -0.6407410000 1.4237570000
O 1.5242500000 4.9114800000 29.8147400000 0.2359670000 0.7193460000 -0.6321940000
O 3.1923200000 5.8024600000 27.4416000000 0.0621840000 -0.3502680000 -0.2716320000
O 3.0736400000 2.1803100000 30.1040500000 -0.0007040000 0.6241400000 -0.7571160000
O 0.2966000000 0.3088300000 27.6589400000 -0.6923770000 0.4074540000 -0.6057180000
O 3.1312600000 7.5864000000 30.1779800000 0.2439070000 0.4175550000 -0.0908440000
O 1.4108600000 6.8326300000 32.4048400000 0.1457070000 -0.5587000000 -0.0604100000
O 2.6667000000 0.5236100000 34.7960300000 0.1782960000 0.1554340000 0.0332700000
O 1.3716900000 1.4928600000 32.1549200000 0.2453870000 -0.3038970000 0.8928200000
O 2.8760600000 5.8235700000 34.7143400000 -0.0049130000 -0.4053690000 0.0268860000
O 3.0469500000 4.0782500000 31.9441000000 -0.1906920000 0.4276300000 0.7044180000
O 1.2662900000 3.1219200000 34.8749000000 -0.1871770000 0.2188610000 0.2516540000
Si 1.3870300000 4.9191000000 10.9892900000 1.7553310000 -0.2672710000 -0.4900310000
Si 2.9699900000 2.2849900000 11.0075600000 0.6123570000 -0.0413440000 -0.6150510000
Si 3.1737400000 7.6348500000 11.0416100000 -1.5770270000 -0.8814410000 -1.2079110000
Si 1.4212500000 3.2788800000 8.3571500000 0.1510280000 0.0816110000 0.4415790000
Si 2.9829500000 0.6261400000 8.4901100000 0.5751550000 -0.5898830000 -0.8144810000
Si 2.9451400000 5.9217300000 8.4930100000 0.1561460000 0.4711440000 -0.5609550000
Si 1.5383100000 4.7874000000 16.0096800000 -0.0798190000 0.7155740000 0.3526250000
Si 3.0897100000 2.1631400000 16.0680900000 -1.5334840000 -0.3973020000 -0.4331140000
Si 2.9678700000 7.3694400000 16.0737600000 1.3727610000 1.9182720000 -0.4977800000
Si 1.6386700000 4.8195100000 21.1405300000 0.0545130000 -0.1300060000 -1.0627880000
Si 3.1497800000 2.1317700000 21.2600000000 0.4927640000 1.2948300000 -0.2483660000
Si 3.1652500000 7.4561600000 21.0023300000 0.3814030000 0.4133480000 -0.4554180000
Si 2.9961000000 3.9559700000 13.4865000000 0.1098190000 -0.6854040000 0.8417240000
Si 1.4389000000 1.2984600000 13.5642200000 1.7570330000 -0.6086240000 0.2945380000
Si 1.4771900000 6.5656100000 13.4654400000 0.2613270000 1.3539080000 0.3186650000
Si 1.5801300000 2.9501000000 18.5946100000 0.2056110000 0.4214400000 0.6271880000
Si 0.0681800000 0.3229600000 18.5621000000 -0.7896700000 0.2287280000 0.3885820000
Si 3.0678500000 5.5924900000 18.5540200000 0.8475020000 0.6476030000 -0.1633740000
C 1.3990000000 5.1014900000 7.8319900000 0.2320700000 -0.7433050000 0.4306880000
C 2.9654800000 2.4008800000 7.7605900000 -0.1772160000 -0.5122780000 0.4301130000
C 3.0012200000 7.6983500000 7.8383600000 -0.4009020000 0.3314710000 0.2013270000
C 1.4350500000 3.1571500000 10.3106000000 -0.0005870000 0.2663320000 0.1234620000
C 3.1238800000 0.5262300000 10.3987100000 -0.0431910000 0.0542140000 -0.5406400000
C 3.0223200000 5.8241400000 10.3519200000 -1.2776090000 0.6953120000 0.8101750000
C 1.5622100000 4.7425900000 17.9152400000 -0.5506470000 -0.3874490000 -0.2705530000
C 3.1221800000 2.0736800000 17.9194100000 -0.2463270000 0.5673750000 0.8798760000
C 3.0885000000 7.4016600000 17.9679200000 0.4750870000 -0.4190470000 -0.4528740000
C 1.4425000000 4.8143000000 12.8864200000 0.3270310000 0.3531010000 -0.7406030000
C 3.0833200000 2.1764600000 12.8885500000 -2.1251200000 0.6995890000 0.0295070000
C 3.0339900000 7.5174700000 12.8655500000 -0.0876130000 -0.3161180000 0.7936460000
C 3.0751000000 3.9517300000 15.4039800000 -0.2768580000 -0.7724120000 -0.4109710000
C 1.4484300000 1.2311900000 15.4799700000 1.5650390000 0.0362300000 -0.7868920000
C 1.4847800000 6.6145400000 15.3403700000 -0.7280020000 -1.4776060000 1.0726420000
C 1.6351300000 3.0069600000 20.5586400000 -0.3763650000 0.3363940000 0.0305490000
C 0.1138000000 0.4557000000 20.4982400000 -0.5314230000 -2.0623350000 -0.1295040000
C 3.1887600000 5.6765800000 20.3865700000 -0.4676440000 0.0863660000 1.4151710000
H 1.3843600000 5.2034000000 6.7380400000 0.0934150000 -0.1408740000 -0.1619600000
H 2.9314800000 2.2770900000 6.6566800000 0.0918220000 0.0779760000 0.2562660000
H 3.0301300000 7.6625700000 6.7044400000 -0.0412420000 0.0868180000 0.9214780000
69
lattice="3.0729999540 0.0000000000 0.0000000000 1.5365000130 7.9838884020 0.0000000000 0.0000000000 0.0000000000 43.8005676270" Properties=species:S:1:pos:R:3:force:R:3 energy=-471.1228276300 virial="-9.9681230247 -2.4895608007 -3.0784598810 -2.4895608007 -17.9737432181 2.0238543106 -3.0784598810 2.0238543106 -18.1517007397"
Ga 1.8196900000 4.6556700000 26.4419700000 -0.3812160000 0.3238450000 -0.2376300000
Ga 3.2896100000 7.6494500000 26.4977500000 0.4036610000 -0.2159060000 0.0038480000
Ga 3.1746200000 2.2515900000 24.6873100000 0.3823690000 -1.1664550000 -0.7879220000
Ga 1.6554400000 6.6883300000 23.6145600000 0.2978070000 -0.7234170000 -1.1468110000
Ga 0.1116800000 0.4397900000 31.1530500000 -0.3910360000 -0.8479000000 0.1591690000
Ga 1.5043700000 3.3182400000 31.0249500000 0.4254000000 0.6949260000 0.7788710000
Ga 3.0604000000 5.9699600000 29.3107600000 -0.1470180000 -1.1008330000 0.5174030000
Ga 3.2117300000 2.1122300000 28.2763800000 1.0268010000 -0.5107900000 -1.6844540000
Ga 2.7964400000 4.1183000000 35.5806800000 0.4636130000 -0.7333850000 -0.0637430000
Ga 1.4238000000 6.8869000000 36.1397000000 -0.2220680000 -0.0050720000 -0.3534520000
Ga 1.1566500000 1.3510200000 34.1527900000 -0.5972820000 0.1401670000 -0.1591930000
Ga 2.9119100000 5.7925600000 32.8107900000 0.4397490000 0.2923650000 0.0549640000
O 3.2172800000 7.4260400000 22.7817100000 -0.5421320000 0.3760080000 -0.0088110000
O 1.6795200000 1.1828400000 25.2715000000 0.0103620000 0.8777090000 -0.6637160000
O 3.3435900000 2.1152500000 22.8497000000 -0.2646300000 0.2991470000 0.6217860000
O 1.6621500000 6.5677200000 25.4128600000 0.1559580000 0.4609570000 0.9305910000
O 1.5769400000 5.1046300000 22.7106300000 0.2285230000 -0.7288280000 0.5679770000
O 3.3195700000 3.9678500000 25.4001000000 -0.0306880000 0.2722550000 0.5353440000
O 1.7526100000 2.9516500000 27.5417300000 -0.8215930000 0.0542520000 0.8125970000
O 1.5038900000 4.9371000000 29.7680300000 0.5329110000 0.0607560000 0.1805930000
O 3.2419400000 5.7735300000 27.4668200000 -0.1728620000 -0.2112770000 -0.9019650000
O 3.1296700000 2.2257400000 30.1323400000 -0.2653760000 0.0056510000 -0.1751880000
O 0.2945000000 0.2983100000 27.5799300000 -0.8762070000 0.5538260000 0.2057440000
O 3.1636300000 7.5865200000 30.1824400000 -0.2410900000 1.1593180000 0.2272380000
O 1.3961300000 6.7913800000 32.3402500000 0.3907110000 -0.4464350000 0.3467020000
O 2.6195600000 0.4397600000 34.7762600000 1.4814860000 0.6422350000 -0.1159480000
O 1.3990500000 1.5093400000 32.2421900000 0.0699820000 -0.6274350000 -0.1778120000
O 2.9413800000 5.8091500000 34.7621700000 -0.1322700000 -0.0752900000 -0.8040060000
O 3.0785400000 4.0571000000 31.9986400000 -0.7170520000 0.6111720000 0.4875600000
O 1.3219000000 3.1182500000 34.8791100000 -0.7151150000 -0.0046560000 0.1670720000
Si 1.4656400000 4.8829100000 10.9704700000 -0.5575430000 0.3125030000 0.3850370000
Si 2.9872700000 2.2832200000 10.9357100000 -0.7397950000 0.2799580000 0.8987650000
Si 3.1174700000 7.6361200000 11.0491300000 -2.1063500000 -1.1365810000 -1.9767700000
Si 1.3983600000 3.2966700000 8.3695300000 -0.1392520000 -0.6452660000 0.8293150000
Si 2.9811500000 0.6340300000 8.4640200000 0.6857270000 -0.3879850000 -0.0141390000
Si 2.9799000000 5.9622700000 8.4513500000 -0.2984190000 -1.6269790000 0.2561540000
Si 1.5059800000 4.7936300000 16.0160400000 0.6154360000 -1.0108410000 -0.0280890000
Si 3.0382400000 2.1940100000 16.0032000000 0.0690420000 -1.5262390000 1.0844570000
Si 3.0212600000 7.4161100000 16.0293500000 0.2186710000 0.3780230000 0.5540660000
Si 1.6496000000 4.7965200000 21.1196400000 -0.3796440000 0.7905020000 -0.7948290000
Si 3.2130000000 2.2024500000 21.2334900000 -0.5722180000 -0.8809900000 -0.3785890000
Si 3.1825800000 7.4371100000 21.0360500000 -0.0048690000 0.0054180000 -0.3138850000
Si 2.9956700000 3.9269500000 13.5061700000 0.4574360000 0.5427210000 -1.0693900000
Si 1.4486300000 1.2022100000 13.5101900000 0.7242620000 2.8058560000 0.6496090000
Si 1.4593600000 6.6095100000 13.4908800000 -0.0649990000 -0.5873170000 0.2455060000
Si 1.5937500000 2.9975900000 18.5873300000 -0.2927980000 -0.1932150000 0.3691080000
Si 3.1010300000 0.3442200000 18.5624100000 0.5439320000 -0.7713230000 0.4072240000
Si 3.0722400000 5.5899000000 18.5155500000 0.1188590000 1.2058580000 1.0397880000
C 1.4168900000 5.0443500000 7.8038800000 0.3945890000 0.7359380000 0.3842370000
C 2.9209100000 2.4099000000 7.7923000000 0.6461410000 -0.7498060000 0.0689510000
C 3.0352800000 7.6926500000 7.8561500000 -1.1918900000 1.2207740000 -0.0606090000
C 1.3928000000 3.1459400000 10.2966400000 1.2377330000 0.4225270000 -0.3110300000
C 3.0019900000 0.5637300000 10.3497600000 1.1996060000 -1.2809420000 0.0733520000
C 2.9759100000 5.7740700000 10.3963700000 0.8016590000 1.6995150000 -0.9886210000
C 1.5243500000 4.7681900000 17.9128700000 0.4256840000 -0.9912380000 -0.8895550000
C 3.1133900000 2.1046800000 17.9517400000 -0.0444600000 0.5987800000 -0.5509200000
C 3.1278600000 7.3662700000 17.9251800000 -0.7567750000 1.0139580000 -0.0498010000
C 1.4731600000 4.8670000000 12.8705000000 -0.2241120000 -0.7953210000 -0.2421200000
C 3.0412700000 2.1851900000 12.8528400000 -0.8942370000 -0.7171260000 0.0249720000
C 2.9807700000 7.5073300000 12.8608500000 0.5152850000 -0.6963480000 0.7435500000
C 3.0916000000 3.8978900000 15.3290000000 -0.9683290000 0.7046710000 1.5241220000
C 1.4876400000 1.2423300000 15.4761000000 0.1566370000 -0.1728510000 -1.4757300000
C 1.4787400000 6.5057000000 15.3847800000 0.2036760000 1.5837110000 -0.2470650000
C 1.6327800000 3.0217300000 20.5058300000 0.5596960000 0.2845890000 0.5680800000
C 0.1064400000 0.4016000000 20.5403400000 -0.1468550000 -0.3611110000 -0.5079590000
C 3.1636800000 5.6469800000 20.3916100000 0.0441860000 0.3037940000 0.4635410000