69
lattice="3.0729999540 0.0000000000 0.0000000000 1.5365000130 7.9838884020 0.0000000000 0.0000000000 0.0000000000 43.8005676270" Properties=species:S:1:pos:R:3:force:R:3 energy=-464.1280113900 virial="-5.2882869113 3.1645813410 -2.7038315299 3.1645813410 -9.2141511055 -0.7089325420 -2.7038315299 -0.7089325420 -15.1795311062"
Ga 1.2281400000 4.3729200000 26.3741100000 -1.9144200000 0.9096000000 1.6548920000
Ga 2.5128000000 7.9645400000 26.1540500000 -0.0258540000 -0.0838900000 -0.3146970000
Ga 2.4020800000 2.2985700000 24.1501400000 3.3647850000 1.9076430000 -0.3018620000
Ga 1.4019200000 6.6287200000 23.3703500000 0.0851840000 1.1428120000 -0.5106650000
Ga 3.0686200000 0.0454600000 30.9299900000 -1.2702480000 -0.2205660000 -0.9506860000
Ga 1.5963200000 3.1427400000 31.5986400000 -0.1875750000 -1.2999560000 -1.2976290000
Ga 2.9880200000 5.4237200000 29.1194900000 1.5906520000 1.5139510000 1.3257030000
Ga 2.6255800000 1.9138700000 28.2818800000 1.3535180000 0.7131380000 0.1387890000
Ga 3.5801800000 3.3183300000 38.2305400000 -0.1073180000 -0.1640010000 0.5542290000
Ga 2.0315600000 5.1410500000 36.2588700000 -0.1892180000 0.2068410000 -2.5868180000
Ga 0.7457800000 1.2047300000 33.8375500000 0.1476670000 0.9659910000 2.3261500000
Ga 3.4421400000 5.4505100000 33.1516700000 -0.0744740000 -0.0328150000 0.3428190000
O 2.9233600000 7.7207800000 22.6370800000 0.0170630000 -0.4951310000 -0.8807880000
O 1.0870500000 1.4293400000 24.7740300000 -3.1306710000 -0.9177330000 1.4049040000
O 3.1568800000 2.5450700000 22.5121700000 -0.3597250000 -0.0673730000 0.3112510000
O 4.4095100000 6.9786800000 25.1116000000 -0.5769420000 -0.5468460000 0.6378120000
O 1.2199300000 4.9822700000 22.6358500000 0.4713490000 0.7307840000 -0.8826610000
O 2.6392900000 3.9675300000 25.3904600000 1.4560020000 -1.4074380000 -2.3015360000
O 1.2388000000 2.8190300000 27.6036300000 -2.2432640000 0.8825520000 0.0834240000
O 1.5669600000 4.7415400000 29.9686600000 -1.7831800000 -1.0275900000 1.0470630000
O 2.8603500000 5.5793200000 27.3241900000 0.2678160000 -0.6288770000 -0.5354120000
O 2.7151600000 1.6825100000 30.0685600000 -0.0946200000 2.2047770000 0.1017500000
O 2.3898500000 0.4072200000 27.2704100000 1.3630560000 -0.9612410000 -0.6836860000
O 3.0198400000 7.3206600000 30.1035500000 0.7442930000 -2.3816480000 -0.5935130000
O 1.9242800000 6.4728200000 33.0894900000 -0.6588940000 0.1553590000 -1.0710750000
O 2.3219800000 1.6107400000 34.9167900000 -0.3703160000 -1.4347950000 -2.0341990000
O 1.1274300000 1.0045700000 32.0276800000 1.0476420000 1.0922310000 2.2581090000
O 3.5036500000 4.8891900000 34.9111800000 0.3027690000 0.2381800000 4.1400060000
O 3.0356100000 3.4541500000 32.8721300000 0.7848620000 0.9431390000 -2.3850280000
O 1.9154400000 4.8204800000 38.0440400000 0.1601960000 -0.5175670000 -0.7214080000
Si 1.3063800000 5.2988600000 10.7217400000 0.5404880000 0.3543310000 -0.1627500000
Si 2.9575400000 2.7359100000 10.6306500000 -0.2676900000 -1.3358810000 0.0688400000
Si 1.4625300000 0.0820600000 10.7420800000 -0.8800880000 -1.4351770000 -0.0459920000
Si 1.3743800000 3.4091300000 8.0698500000 -0.1705720000 0.7622460000 0.8525270000
Si 2.9402700000 0.7638500000 8.2059000000 -0.0035820000 -0.7534260000 0.0118050000
Si 2.8413200000 6.0778000000 8.3558600000 0.4357270000 0.2087860000 -0.3933040000
Si 1.2980900000 5.1976800000 15.9033100000 0.7435060000 0.1559300000 -2.4473060000
Si 2.9902500000 2.5327700000 15.7796300000 -0.1872380000 0.8321810000 -0.0476560000
Si 2.9784900000 7.9167800000 15.7031200000 -0.0937910000 -0.8542970000 0.0846610000
Si 1.3937400000 5.0922600000 20.9611100000 -0.9178900000 2.8118410000 -0.6556910000
Si 2.9902700000 2.6312900000 20.8979300000 -1.1433820000 -1.3777730000 0.5230800000
Si 2.8744300000 7.9817200000 20.8893300000 0.6598280000 -1.8834900000 0.5434400000
Si 2.9860000000 4.4529600000 13.2192000000 -0.2099330000 -0.9876640000 0.6636130000
Si 1.4226900000 1.7765900000 13.2016900000 0.2223740000 0.0388230000 -0.4210410000
Si 1.4109700000 7.0377800000 13.2287100000 0.6900200000 0.3538450000 -0.6421080000
Si 1.4164200000 3.4765900000 18.3751500000 -0.3468630000 0.5679670000 -1.0819700000
Si 2.9239600000 0.7873400000 18.3597400000 -0.5037990000 1.8072810000 -1.1546640000
Si 2.6973500000 6.2418500000 18.3533600000 1.8812550000 -0.8641600000 0.4146660000
C 1.3143900000 5.2264000000 7.6992100000 0.0091430000 -0.1186380000 -0.6955800000
C 2.9045400000 2.5011700000 7.5455500000 0.1290760000 0.0237760000 -0.6445940000
C 2.9407400000 7.7906200000 7.6462500000 -0.2536130000 0.9389760000 0.0004530000
C 1.4056200000 3.5486900000 9.9672200000 0.0280120000 0.1929980000 0.4695590000
C 2.9743900000 0.8881600000 10.0885600000 0.2380280000 0.7686730000 -0.2151790000
C 2.8379700000 6.2357600000 10.2135300000 0.5697190000 -0.2492370000 -0.7808190000
C 1.2273900000 5.3187200000 17.7399500000 -0.2018340000 -0.5956210000 0.5981870000
C 2.9590300000 2.6320000000 17.6673300000 -0.2474480000 -0.7569320000 1.1052980000
C 1.3598700000 0.0172100000 17.6130900000 0.2231530000 -1.1444740000 1.1034230000
C 1.4602500000 5.2862100000 12.5651900000 -0.7594120000 0.1117550000 0.8898870000
C 2.9617500000 2.7029300000 12.4898400000 0.0352120000 -0.6338400000 1.5769760000
C 2.9849300000 7.9482300000 12.5881600000 -0.5294580000 0.6689420000 0.8622630000
C 2.8809000000 4.2878100000 15.1492500000 0.0383130000 1.1346370000 0.5172400000
C 1.4620900000 1.6878000000 15.1335800000 -0.3683960000 0.1633110000 -0.5802960000
C 1.4526900000 6.9758500000 15.0862500000 -0.5541730000 0.1390970000 1.4810900000
C 1.4056800000 3.4032600000 20.2675300000 1.0658970000 0.9258010000 -0.6012130000
C 2.9118900000 0.8742200000 20.2556800000 -0.4619800000 -0.7192270000 0.5314840000
C 2.8445300000 6.1668800000 20.2986200000 0.3477450000 -0.8585370000 0.0984050000
H 1.3011400000 5.4450900000 6.6137900000 0.0153260000 -0.0320930000 -0.0425800000
H 2.8970900000 2.3930500000 6.4453000000 0.0352670000 0.1260280000 -0.0714710000
H 2.9390700000 7.7069200000 6.5437600000 0.0229220000 0.0937080000 0.0120830000
69
lattice="3.0729999540 0.0000000000 0.0000000000 1.5365000130 7.9838884020 0.0000000000 0.0000000000 0.0000000000 43.8005676270" Properties=species:S:1:pos:R:3:force:R:3 energy=-463.7877078200 virial="4.1117497193 5.7100003597 -12.5867788208 5.7100003597 -16.5412227300 2.2682273070 -12.5867788208 2.2682273070 -23.8323030964"
Ga 1.0267700000 4.1926400000 26.3545600000 -2.4853480000 0.1584110000 2.4424320000
Ga 2.7724800000 7.6099000000 25.9782100000 -0.8430750000 1.2988380000 3.7115460000
Ga 2.1700800000 2.2603000000 24.1979300000 2.6288300000 1.7191330000 -0.8683030000
Ga 1.4076100000 6.7811800000 23.3365300000 -0.2663730000 -0.6933230000 -1.3023090000
Ga 2.7187800000 0.1187100000 31.1481000000 1.2027870000 -0.0943250000 -0.2639480000
Ga 1.5323700000 3.0681400000 31.3652100000 0.9898200000 1.0251310000 -0.8734400000
Ga 3.3825500000 5.6118000000 29.1212500000 -1.7910540000 -0.6186360000 1.5847670000
Ga 2.6924300000 1.8161900000 28.4217900000 -2.0485530000 -1.4420690000 -0.1377740000
Ga 3.6119200000 3.5712900000 38.1462200000 0.0054460000 -0.2850990000 0.6887310000
Ga 1.8735700000 5.3334700000 36.2060000000 -0.7476830000 1.1075660000 -1.4377500000
Ga 1.1124300000 0.9182700000 34.0715900000 0.6194640000 -0.9909660000 1.9738370000
Ga 3.5099200000 5.6929600000 33.4073700000 -1.8451990000 -1.1991320000 -2.6778910000
O 2.9228000000 7.7041800000 22.4857700000 -0.1405650000 -0.0513150000 0.1662540000
O 1.0813300000 1.3027000000 25.0309200000 -3.1085960000 -1.7372290000 0.8974430000
O 2.9952500000 2.3610800000 22.6334800000 0.4011930000 0.1140110000 -1.7361150000
O 4.0339400000 6.6289700000 25.0859200000 1.5784990000 0.1904400000 -0.9510970000
O 1.4866300000 5.1690300000 22.4603500000 -0.3867690000 0.2087670000 -0.6354730000
O 2.3253600000 3.8592700000 25.2957200000 2.7470120000 -1.1684620000 -1.6383520000
O 1.0405700000 2.7102600000 28.0332100000 3.0814510000 1.9458850000 -2.2534510000
O 1.7308900000 4.7543100000 29.8244800000 1.0413610000 0.2174070000 -0.3532300000
O 3.3595600000 5.5452600000 27.2706300000 -0.9104790000 0.3765650000 0.1661850000
O 3.0016700000 2.0281900000 30.3579800000 -0.6982990000 -1.0722650000 -0.4932060000
O 2.9180600000 0.1860900000 27.3714500000 -0.6122300000 -0.2419950000 -0.8421760000
O 2.8042900000 7.2016700000 30.3982500000 0.3892700000 0.5995690000 -0.5063680000
O 1.8488800000 6.7158000000 32.9965500000 1.1913390000 0.4242550000 0.0896400000
O 2.7580400000 0.6889900000 35.2115200000 -0.7633470000 0.6381740000 -1.8991550000
O 1.6797200000 1.2576100000 32.3556700000 -0.4515650000 0.0843120000 0.5992670000
O 3.3335600000 4.9985100000 35.1048900000 0.7771300000 -0.2886340000 0.7994890000
O 3.1855700000 4.0344500000 32.0762200000 -0.1645830000 0.4537090000 1.6807410000
O 2.1708800000 5.0472700000 37.9009600000 -0.0290430000 -0.6925070000 0.9247320000
Si 1.4454200000 5.2274900000 10.7094400000 -0.3489190000 0.3990130000 -0.2166300000
Si 2.9940600000 2.5945600000 10.6639500000 -0.7177940000 -0.3827290000 1.0882040000
Si 2.9481100000 7.8198400000 10.6028600000 -0.2180660000 1.8185770000 0.7461400000
Si 1.3549800000 3.6115900000 8.1414300000 -0.1221030000 0.1030880000 0.5256570000
Si 2.8576200000 0.9949100000 8.0990000000 0.3040080000 -0.8005290000 -0.0401750000
Si 2.8596700000 6.2477600000 8.0261500000 0.4101820000 0.3856930000 0.4449380000
Si 1.3100600000 5.4152000000 15.7366400000 -0.3321340000 -0.6346330000 0.0315790000
Si 2.7474700000 2.7287300000 15.8109300000 -0.0780780000 0.1605710000 0.1333210000
Si 1.1969600000 0.1310000000 15.8618500000 0.4769580000 -0.8933590000 -0.4768320000
Si 1.2990800000 5.0514000000 20.7853000000 0.0910030000 1.7690010000 0.8875190000
Si 2.8915500000 2.4248200000 20.9415800000 -0.7965760000 0.5750970000 0.7792130000
Si 2.8319900000 7.7974000000 20.7706900000 0.5192390000 -1.5007500000 -0.8523740000
Si 2.7351500000 4.2987900000 13.2184700000 0.8742490000 -0.0272380000 1.0127860000
Si 1.3312900000 1.5912900000 13.2760700000 -1.3902470000 1.0711400000 -0.3142820000
Si 4.3845300000 6.9917000000 13.2752600000 -0.6624230000 0.2268350000 0.3480340000
Si 1.3108200000 3.4557800000 18.3440200000 0.9772450000 0.6052510000 0.5284290000
Si 2.8869100000 0.8247200000 18.3494600000 -0.2765360000 0.3942840000 -0.7136260000
Si 3.0338900000 6.1662300000 18.1212000000 -1.4012710000 -0.6034740000 2.7644750000
C 1.3261200000 5.3456500000 7.4627800000 0.0596830000 0.4343210000 -0.0458130000
C 2.8773700000 2.7804300000 7.5394800000 0.1895990000 -0.5634660000 -0.2222890000
C 1.3221200000 0.1230500000 7.4501900000 0.0645020000 -0.6615350000 0.4763430000
C 1.4539300000 3.5006800000 10.0412900000 -0.2430230000 -0.3730680000 0.1605350000
C 2.9469800000 0.8546900000 9.9837800000 -0.0377530000 -1.1871920000 0.5111740000
C 3.0014400000 6.0722700000 9.9750600000 -0.7436580000 0.6477360000 0.0476660000
C 1.4724500000 5.2545600000 17.5799100000 -0.5493260000 -0.0910340000 0.4255370000
C 2.8794500000 2.6019100000 17.7612000000 -0.8299800000 0.1110880000 -1.4525380000
C 1.3396000000 0.0129400000 17.7097000000 0.2578780000 -0.5338600000 -0.4000220000
C 1.2203100000 5.2009900000 12.6336200000 0.4827680000 0.2318490000 -0.9333930000
C 2.8047500000 2.4915200000 12.6472900000 1.2184970000 0.6020140000 -1.1805560000
C 2.8347400000 7.8260100000 12.5945400000 0.4497130000 0.0781090000 -0.5767830000
C 2.8223100000 4.5268500000 15.1493900000 0.0441890000 -0.9180350000 -0.9224530000
C 1.1681300000 1.8301900000 15.1725400000 1.2149130000 0.3016530000 -0.1013070000
C 4.2763700000 7.2383200000 15.2572700000 0.4671170000 -1.1325990000 -1.5074490000
C 1.3084200000 3.2811800000 20.2901100000 0.6393990000 0.4124390000 -0.3180300000
C 2.8535400000 0.7313600000 20.1538100000 -0.2482420000 -0.7030940000 2.6391330000
C 2.8109500000 5.9666400000 20.1019200000 1.0165620000 0.8209480000 -0.1637850000
H 1.3747100000 5.2288100000 6.3643200000 -0.0537250000 0.1105980000 0.0022080000
H 2.8882100000 2.8027600000 6.4350200000 0.0353840000 -0.0572920000 -0.0256630000
H 1.3819600000 0.1804200000 6.3463700000 -0.1040810000 -0.1816340000 0.0560830000
69
lattice="3.0729999540 0.0000000000 0.0000000000 1.5365000130 7.9838884020 0.0000000000 0.0000000000 0.0000000000 43.8005676270" Properties=species:S:1:pos:R:3:force:R:3 energy=-465.0668527400 virial="-4.4481667030 6.4595857186 0.1129572826 6.4595857186 -3.4494394724 5.2708614010 0.1129572826 5.2708614010 -8.7537970238"
Ga 3.6965100000 4.2507700000 26.5172500000 2.7630010000 -3.3605120000 -2.7796490000
Ga 2.8655700000 7.1030500000 26.4885800000 -0.0284880000 2.5267740000 -2.0218520000
Ga 2.4114100000 2.0840500000 24.1594400000 -0.5443220000 0.4517050000 0.4297140000
Ga 1.4050900000 6.8606600000 23.3674400000 0.0075930000 -0.1186660000 -1.9414660000
Ga 2.9959700000 0.4097600000 31.4410900000 1.1869320000 -0.4366130000 0.3004840000
Ga 1.8598100000 3.4029700000 31.0040800000 -1.1668970000 -1.5745330000 -1.1100370000
Ga 3.2678400000 5.8877300000 29.3761900000 0.3547180000 0.5661960000 1.4361770000
Ga 2.7582200000 1.7144500000 28.0993100000 1.6515290000 1.0923410000 0.8685150000
Ga 3.6339500000 3.7169700000 38.4850800000 -0.1524860000 0.3139390000 -0.4451760000
Ga 1.7763300000 5.9947700000 36.0380700000 -0.4785110000 -0.6453910000 -1.1463680000
Ga 1.6397700000 0.2900900000 34.4092900000 -0.2364820000 -0.9206300000 0.9433730000
Ga 3.2202100000 5.5119000000 32.9038700000 0.6438350000 0.8480600000 -0.6309620000
O 2.8881600000 7.8717700000 22.4369900000 0.3058410000 -1.2070920000 0.8780230000
O 0.8512200000 1.2208700000 24.7801200000 0.8077430000 1.2571120000 -0.2029540000
O 2.6542700000 2.5223500000 22.3992700000 0.0273070000 -0.2090970000 2.2513490000
O 1.3467700000 6.9487900000 25.1623100000 -0.5139930000 -1.2658850000 1.4931430000
O 1.3371500000 5.2098200000 22.4843100000 -0.3229350000 1.3579240000 0.0748180000
O 2.2972700000 3.8927900000 25.4328900000 -0.8272270000 0.1035980000 -0.5339280000
O 1.3938800000 2.7583700000 27.5002000000 -2.1065620000 -1.0015510000 1.3499350000
O 1.7474100000 4.7882300000 29.6971200000 -0.2207860000 0.5254260000 0.4303630000
O 3.1557500000 5.5800300000 27.5029300000 -0.6312390000 1.7017120000 1.4748300000
O 3.0883500000 1.9886700000 30.1365900000 -0.6522460000 0.5025130000 -0.2098460000
O 2.9299000000 0.0145300000 27.4692400000 -0.2783980000 -0.5675470000 0.3694540000
O 3.2492000000 7.3794700000 30.6608700000 -1.3900420000 -1.6525110000 -2.9969500000
O 1.7203000000 6.5540900000 32.6611500000 -1.0221510000 -0.9909070000 -0.3420090000
O 1.6700300000 7.8169000000 35.6866800000 -0.0869890000 1.9942240000 -0.7007430000
O 1.3644900000 0.9532000000 32.5966900000 0.9857780000 0.6516100000 0.6832990000
O 3.1940400000 5.9776200000 34.6994100000 0.6267610000 -1.2011770000 2.2036010000
O 3.2888400000 3.7835400000 32.0788800000 1.1472940000 0.9992990000 0.7467970000
O 1.8488500000 4.7018200000 37.3442700000 0.0860690000 0.4465580000 -0.2360520000
Si 1.2106900000 5.4070300000 10.7248500000 0.1218890000 0.3927350000 0.7713260000
Si 2.7467000000 2.8000000000 10.7163000000 0.3204080000 0.2636900000 -0.2080610000
Si 1.1956700000 0.1783100000 10.6528300000 0.6042620000 -1.4184930000 0.4651200000
Si 1.3173000000 3.4949700000 8.0655200000 -0.4156540000 0.0511470000 0.6553920000
Si 2.9077100000 0.8176100000 8.2485800000 -0.5277320000 0.8869700000 -0.7452560000
Si 2.7269800000 6.1337200000 8.3100100000 0.7515760000 0.1536350000 -0.7334150000
Si 1.2556100000 5.0952900000 15.6694300000 -0.0440100000 1.1394450000 1.5054370000
Si 2.8785700000 2.4380600000 15.6157600000 -1.2588000000 0.0081480000 0.9471740000
Si 2.8627600000 7.7767500000 15.6452800000 -0.6115920000 0.2432780000 1.6165120000
Si 1.1963600000 5.2736200000 20.8130600000 0.0554290000 -1.1809230000 0.1386420000
Si 2.8265100000 2.6238900000 20.8479600000 -0.6473580000 -0.4021190000 -2.6373710000
Si 2.9166400000 7.8851400000 20.7276400000 -0.9533650000 -0.0991240000 -0.9893290000
Si 2.6970400000 4.4250300000 13.2744100000 0.4169800000 -0.4159610000 -0.7691090000
Si 1.3219100000 1.7274000000 13.1288900000 -1.6986250000 -0.1032440000 0.6904490000
Si 4.4040900000 7.0772900000 13.1913300000 -1.1152020000 0.0099510000 -0.5468580000
Si 1.2421300000 3.2848200000 18.1308500000 0.8742490000 1.5930970000 1.9436830000
Si 2.7959800000 0.6912200000 18.2253400000 0.2749120000 -1.3005000000 -1.0056030000
Si 2.8327100000 5.9717900000 18.2628400000 -0.4840660000 0.5277740000 -0.4712110000
C 1.2034500000 5.2998900000 7.5979800000 0.2025050000 0.0263260000 0.1048990000
C 2.8612900000 2.5440700000 7.4897900000 -0.0549240000 0.5283460000 0.3973760000
C 2.9146400000 7.8906700000 7.7478900000 -0.5717400000 0.0663180000 -1.0407080000
C 1.2248600000 3.6934000000 10.0250400000 0.0328820000 -1.1781630000 -0.1812620000
C 2.7484400000 1.0537700000 10.0679000000 0.1221310000 -0.3582510000 0.3795820000
C 2.7616300000 6.3401700000 10.1413600000 -0.4821950000 -0.6516430000 0.1550460000
C 1.2892100000 5.1256000000 17.5716800000 -0.1379550000 -0.7756130000 -0.0688390000
C 2.8273600000 2.3973900000 17.5394200000 -0.7709680000 0.6124830000 -0.7018710000
C 2.7944900000 7.7441000000 17.6038400000 0.3540450000 0.5915210000 -0.8436150000
C 1.1571300000 5.2963900000 12.6577500000 0.6052700000 0.1464900000 -1.2774820000
C 2.7656400000 2.6733900000 12.6273400000 1.3276210000 0.2434900000 -1.6195620000
C 2.8154200000 7.9776900000 12.4827400000 0.4616310000 -0.1270460000 1.0814240000
C 2.7807800000 4.2448900000 15.1062300000 0.2931290000 -0.2347810000 -0.0784140000
C 1.2892200000 1.5735100000 14.9817200000 0.9234710000 -0.0030250000 0.7335480000
C 4.3775500000 6.8927200000 15.0569200000 0.3343520000 0.3643280000 -0.2757380000
C 1.2402400000 3.5127000000 20.1510000000 0.4735290000 -1.2874670000 -0.5464890000
C 2.8917500000 0.7257400000 20.0432900000 -0.0579760000 1.2927270000 2.6069740000
C 2.7051300000 6.0968600000 20.1543300000 1.3428050000 0.4133150000 -0.0349690000
H 1.2172500000 5.5484300000 6.5203500000 -0.0281940000 -0.2222620000 -0.0126660000
H 2.8356300000 2.5248400000 6.3850100000 0.0480460000 -0.0559650000 0.0367370000
H 2.8878000000 7.8785000000 6.6404600000 -0.0154150000 0.0724880000 -0.0773760000
69
lattice="3.0729999540 0.0000000000 0.0000000000 1.5365000130 7.9838884020 0.0000000000 0.0000000000 0.0000000000 43.8005676270" Properties=species:S:1:pos:R:3:force:R:3 energy=-464.9517020900 virial="-6.2087871490 1.9579217598 -2.8533166529 1.9579217598 -8.9759890492 -1.9826313750 -2.8533166529 -1.9826313750 16.0030172631"
Ga 1.5491600000 4.3070600000 26.6383000000 -1.3630070000 0.3389730000 -0.5327820000
Ga 2.8573900000 7.5985600000 26.1475700000 0.0215800000 -1.1482040000 -1.1198130000
Ga 2.7535000000 2.1111100000 24.5409600000 0.4508060000 -1.0553630000 -2.4022300000
Ga 3.9948800000 6.7877700000 23.2602800000 -0.1103460000 1.0138340000 -0.6934660000
Ga 0.1631300000 0.2679900000 31.2271200000 -0.2263900000 -1.4743920000 0.6682350000
Ga 1.4589500000 3.2401800000 30.6871800000 1.1314160000 0.8713880000 0.4415350000
Ga 3.1470300000 5.7751000000 29.1545600000 1.4530910000 0.2226560000 -0.0240960000
Ga 3.0362200000 1.6988600000 28.1952400000 -2.3542940000 -2.0024440000 0.4438130000
Ga 3.2335500000 4.6176200000 38.5342200000 -0.0119900000 0.5181960000 -0.5892840000
Ga 1.9760200000 6.0985200000 35.6336100000 -0.1787300000 -2.5305660000 0.1327670000
Ga 1.8737800000 0.9867900000 34.1605600000 0.5126170000 -1.0928130000 4.5793430000
Ga 3.4992700000 5.4395200000 32.9485400000 -1.5009260000 -0.2712460000 -1.9289530000
O 2.4998900000 7.7681700000 22.5587100000 0.5876340000 -0.9957810000 0.2550810000
O 1.2511800000 1.0820500000 24.6941300000 -0.5904690000 -0.9068130000 2.3847840000
O 2.6020000000 2.2081100000 22.6964600000 0.1298170000 0.5561030000 2.8232140000
O 4.1764900000 6.5356800000 24.9737500000 0.0940080000 0.9365200000 3.2258120000
O 1.2017500000 5.3116100000 22.3732800000 0.1788200000 -1.4976330000 -0.6095390000
O 2.8472300000 3.5324400000 25.5512100000 0.8883300000 2.0544890000 1.2499540000
O 1.4105300000 2.3431800000 27.5030700000 2.0014210000 1.8410190000 -0.1373670000
O 1.7239500000 4.7052800000 29.3128400000 -2.7354000000 -1.2379030000 1.0024180000
O 2.9938700000 5.4712300000 27.2975400000 0.7715650000 -0.3103410000 -1.2090400000
O 2.9878200000 2.0068700000 30.1337500000 0.2691470000 -1.1221060000 -1.4019890000
O 4.3837300000 7.9100400000 27.3725700000 0.5802550000 0.8641450000 -0.3662040000
O 3.0324900000 7.3511400000 30.0465400000 0.5257960000 1.5913770000 1.0549310000
O 1.8920000000 6.4051600000 32.5084200000 0.5290680000 0.5123430000 -0.8764240000
O 2.0828100000 7.7451900000 34.9181700000 -0.2422790000 1.6369980000 -0.3179940000
O 1.7161400000 1.0713300000 32.4757500000 -0.2348760000 -0.5333170000 -5.5825600000
O 3.7161500000 4.9138700000 34.6477700000 -0.3672410000 1.3146050000 1.9215030000
O 3.0713300000 3.9316000000 31.5565800000 0.1966550000 1.3399250000 1.8764900000
O 1.7321400000 5.5526100000 37.3931800000 0.3160730000 -0.0393800000 -0.4759210000
Si 1.2842300000 5.1851900000 10.8938900000 -1.5820020000 -0.2653670000 -0.7273600000
Si 2.7719800000 2.5721500000 10.8757200000 -0.2179340000 -0.7521230000 0.2136700000
Si 2.7276400000 7.8961200000 10.8424200000 0.0961870000 -0.3382680000 0.9143290000
Si 1.1557100000 3.1948100000 8.2391200000 -0.0744600000 1.1378190000 0.7316680000
Si 2.6943800000 0.6142600000 8.3698400000 -0.0916940000 -0.4344810000 -0.6079560000
Si 2.5742200000 5.8826500000 8.5170500000 0.6061690000 0.5898590000 -1.9254670000
Si 1.0032300000 5.1030100000 15.8110500000 1.7028890000 0.3370580000 1.0396470000
Si 2.6299000000 2.4695500000 15.9310200000 0.9132710000 -0.3558610000 -1.6281710000
Si 2.6187500000 7.7792000000 15.8621700000 0.7223420000 0.4728070000 -0.7308770000
Si 1.1900100000 5.1544700000 20.7302900000 0.9419590000 0.2229280000 0.8920380000
Si 2.5768500000 2.4950500000 21.1929700000 1.1924340000 0.0909570000 -4.8007230000
Si 2.6805300000 7.7814500000 20.8963900000 0.2659300000 0.7040280000 -1.3712140000
Si 2.5152800000 4.3233600000 13.3923300000 0.9160380000 -1.0442580000 -1.5666620000
Si 0.9613700000 1.6139000000 13.4314700000 2.0106090000 0.2473780000 -1.5746720000
Si 4.0890200000 6.9303300000 13.3995500000 0.6650250000 0.6936260000 -1.0242490000
Si 1.3523200000 3.2687200000 18.3359700000 -1.6745770000 1.4113880000 2.1631020000
Si 2.7984100000 0.6715200000 18.4300600000 0.1837450000 -0.5794570000 -0.0449590000
Si 2.9250400000 6.0468200000 18.2906300000 -1.6170940000 -0.8329400000 0.1319890000
C 1.0254200000 5.0194200000 7.8567700000 0.4020530000 -0.0214090000 -0.3873690000
C 2.6901800000 2.3233400000 7.5985600000 -0.0508060000 0.1455490000 0.6801810000
C 2.6841500000 7.6481400000 7.8430700000 -0.0853050000 0.2865840000 -0.1763290000
C 1.2537500000 3.3964800000 10.1918800000 -0.4123180000 0.0880130000 -0.0342200000
C 2.7542000000 0.7975700000 10.2152200000 -0.4839710000 -0.3211320000 0.6066200000
C 2.7699000000 6.0821700000 10.3070900000 0.1679730000 0.0059100000 0.6424490000
C 1.3058900000 5.0727400000 17.6973600000 0.3176610000 0.0663790000 -0.0989980000
C 2.8344500000 2.3966800000 17.7742200000 0.3871990000 0.4888570000 -0.3355720000
C 2.8331300000 7.7942800000 17.6662300000 -0.6931980000 0.3315100000 1.7673020000
C 1.0129500000 5.1993200000 12.6975400000 0.1191200000 -0.5991760000 1.5922820000
C 2.6012000000 2.5199200000 12.7771800000 -1.1403430000 0.4344650000 -0.5035430000
C 2.5832500000 7.8430100000 12.7613100000 -0.2642810000 -0.0924090000 -0.1241110000
C 2.5794600000 4.2485300000 15.2044300000 -0.4193280000 -0.4697840000 1.2075970000
C 1.1371300000 1.5892800000 15.2323100000 -0.9877920000 -0.0666480000 1.7422040000
C 4.1703800000 6.8831800000 15.2627100000 -0.5024260000 0.1661570000 -0.1753390000
C 1.1459600000 3.3576500000 20.3257300000 -0.1151870000 -0.4530580000 0.1686360000
C 2.7156100000 0.7163500000 20.3531400000 -0.6637980000 0.2231890000 -0.3540180000
C 2.8134700000 6.0954500000 20.1430900000 -1.3518360000 -0.6857620000 -0.0555940000
H 4.0692500000 5.1966900000 6.7652700000 0.1422350000 0.0337800000 -0.0477310000
H 2.7089500000 2.3066600000 6.4966300000 0.0002490000 -0.0467860000 0.0342630000
H 2.7078800000 7.6910600000 6.7376300000 -0.0468870000 -0.2135910000 -0.0250640000
69
lattice="3.0729999540 0.0000000000 0.0000000000 1.5365000130 7.9838884020 0.0000000000 0.0000000000 0.0000000000 43.8005676270" Properties=species:S:1:pos:R:3:force:R:3 energy=-465.9205803500 virial="-10.5728311611 10.3938138894 4.0097118866 10.3938138894 -15.3099273137 18.3181083272 4.0097118866 18.3181083272 -16.7517440903"
Ga 1.4861100000 4.4315300000 26.2347500000 -1.1670680000 0.7892240000 2.2902910000
Ga 3.2631600000 7.3719300000 26.2014500000 -1.6007350000 2.0418520000 1.5380570000
Ga 3.0510600000 2.3542100000 24.2818500000 0.6815740000 -3.3166090000 2.3112400000
Ga 4.1125800000 6.6770100000 23.3660500000 0.0772470000 -0.5168460000 0.7093220000
Ga 2.9893600000 0.1990900000 30.9455300000 2.4927860000 0.3984860000 1.3221030000
Ga 1.9187200000 2.9653900000 31.1438500000 -0.8370400000 -0.6430820000 -0.5947900000
Ga 2.9954700000 5.6888900000 29.2183100000 -0.0500820000 0.1421850000 0.7076640000
Ga 3.2079600000 1.8941600000 27.8052000000 0.3218370000 4.3123730000 2.5997300000
Ga 3.1798700000 5.1444500000 38.5629900000 -0.0600680000 0.4734320000 -0.9618400000
Ga 2.0028100000 6.1256900000 35.4031500000 1.1101880000 0.5290800000 1.1499430000
Ga 1.7701600000 1.1642200000 34.3937500000 0.0827500000 -0.9131360000 -1.3851720000
Ga 3.2677600000 5.4379300000 32.5678300000 0.6494650000 4.2786240000 1.1225250000
O 2.5618800000 7.7330600000 22.7257100000 -0.1036310000 -1.4540570000 -0.3265290000
O 1.6189000000 1.2279400000 25.0586300000 -0.7034840000 0.9229120000 -0.9454990000
O 2.6237300000 2.3117100000 22.6097500000 -0.7104080000 0.0871520000 -1.6117780000
O 1.5007000000 6.5382000000 25.1789800000 0.5462920000 -0.5361200000 -1.1557770000
O 3.8644900000 4.8959500000 22.7254100000 0.6111540000 1.3117660000 0.1282960000
O 2.9239600000 3.7913300000 25.3594700000 1.8723050000 0.4586650000 -1.0963270000
O 1.6798400000 3.0415300000 27.6650400000 -1.0522230000 -0.3469350000 -0.8695390000
O 1.4386600000 4.9796700000 30.1131500000 1.1614150000 -0.5089260000 -1.8053230000
O 2.9997800000 5.5601400000 27.1830800000 0.3203800000 0.5332040000 0.7577960000
O 2.9632300000 1.9796800000 29.8290100000 0.5970220000 -0.0433180000 1.1832910000
O 2.9770900000 0.2966300000 27.3574100000 0.3488300000 -4.4140740000 -1.9269910000
O 3.3035800000 7.4390800000 29.9293700000 -3.0022560000 -0.9504070000 -1.2666340000
O 1.7482000000 6.6362700000 32.2907700000 0.1800170000 -1.8423440000 0.6326370000
O 0.2389000000 0.1302600000 34.9532100000 0.4877740000 -0.1682860000 0.2573350000
O 1.8495900000 1.1012500000 32.2949400000 -0.3342840000 1.3379510000 -0.6090730000
O 3.6773900000 5.3130400000 34.6280700000 -2.7383890000 0.1374950000 -1.5789530000
O 3.3930600000 3.7887800000 32.0299000000 -0.0124850000 -2.5496920000 -0.2795100000
O 1.6714600000 5.7664500000 37.2151400000 0.5767540000 -0.0951050000 0.0831510000
Si 0.9851400000 5.0578400000 10.8632100000 0.5787580000 0.0829670000 -0.5229430000
Si 2.5945100000 2.3314600000 10.9972500000 0.5168810000 0.5563430000 -0.6687020000
Si 2.5804100000 7.6635000000 10.9620500000 0.7477810000 0.5880700000 -1.3830790000
Si 1.1142800000 3.3781200000 8.4265400000 -0.3328480000 0.2856770000 -0.0044960000
Si 2.6432600000 0.7645500000 8.3546900000 -0.0331980000 -0.3653660000 0.2779900000
Si 2.6416000000 6.0787400000 8.3386600000 -0.2238120000 -0.1555200000 -0.1222050000
Si 1.1059500000 5.0329400000 16.0621100000 0.6032620000 -0.0172980000 -2.1747790000
Si 2.6813600000 2.3927000000 15.8995100000 0.6615990000 0.0644570000 0.3191570000
Si 2.7496100000 7.7190900000 15.9382200000 -0.2355700000 -0.5488000000 -0.3321710000
Si 0.9914000000 4.8244800000 21.0839900000 -0.9081390000 1.6133440000 -0.5631570000
Si 2.4920800000 2.2857200000 20.9984000000 -0.6850420000 -0.6014560000 0.5378410000
Si 2.5183100000 7.6410600000 21.0021600000 0.0633410000 -0.1937800000 -0.3646680000
Si 2.7874700000 4.0616200000 13.3675200000 -0.3529460000 0.4552590000 0.4435600000
Si 1.2229100000 1.3509000000 13.4749800000 0.6777530000 0.6626900000 -1.4223080000
Si 4.3506300000 6.6836700000 13.4527900000 -0.4438370000 0.3751610000 -0.5959280000
Si 0.9334100000 3.2823300000 18.4615800000 0.0014020000 -2.6425430000 0.1561550000
Si 2.3870500000 0.5044800000 18.4976200000 1.8736160000 1.2402630000 -0.4727980000
Si 2.4169800000 5.8935300000 18.5727600000 -0.0688660000 0.0281020000 -0.5197900000
C 1.1098600000 5.1541800000 7.7809000000 -0.1179380000 0.4009790000 0.0068640000
C 2.6409000000 2.5604400000 7.7699400000 0.1732670000 -0.5642450000 0.4262010000
C 2.6452500000 7.8843600000 7.7263100000 -0.0370520000 -0.6237710000 0.3121970000
C 1.0561900000 3.2814900000 10.3363900000 -0.0480780000 -0.7713570000 -0.1938500000
C 2.6070300000 0.5906200000 10.2924400000 -0.3712220000 0.2873020000 0.0690120000
C 2.5052500000 5.9595800000 10.2110800000 0.7848470000 -0.2836160000 0.8082310000
C 3.9255600000 5.0051900000 17.9116200000 1.2022230000 0.8305850000 -0.0001850000
C 2.4841300000 2.3113900000 17.8143300000 0.1060220000 0.7171180000 0.3350960000
C 2.4696500000 7.6344700000 17.8195700000 -0.6566640000 -0.0833610000 0.7040250000
C 1.2413600000 4.9573600000 12.6987200000 -0.3189550000 -0.0052690000 1.3285340000
C 2.8000800000 2.2482500000 12.9098100000 -1.1972650000 0.5019040000 -1.6009980000
C 2.8025500000 7.6050600000 12.8081500000 -0.4224770000 -0.4999790000 0.5701760000
C 2.7183200000 4.1881700000 15.2700800000 -0.7876850000 -0.4314660000 1.3920850000
C 1.2203300000 1.5109600000 15.2494700000 -1.2388130000 -0.9347950000 2.5358610000
C 4.3249500000 6.7741900000 15.3221400000 -0.8760580000 0.4071270000 0.8281770000
C 0.8983100000 3.0961400000 20.3687700000 1.6873240000 1.4342790000 -0.4281680000
C 2.5185100000 0.4972300000 20.4103700000 -0.3723700000 0.2499140000 -0.2774030000
C 2.4871400000 5.8677400000 20.4577000000 0.2077670000 -1.3346260000 0.0908220000