69
lattice="3.0729999540 0.0000000000 0.0000000000 1.5365000130 7.9838884020 0.0000000000 0.0000000000 0.0000000000 43.8005676270" Properties=species:S:1:pos:R:3:force:R:3 energy=-469.2151299000 virial="-8.4465768248 2.3399549467 7.2235045323 2.3399549467 -8.4743047154 -9.8494645551 7.2235045323 -9.8494645551 -17.6569181959"
Ga 1.2898000000 4.7806700000 26.4273800000 0.2665370000 0.2422500000 -0.5759530000
Ga 2.8078900000 7.7647200000 26.4707200000 1.6826850000 -0.7429030000 -2.4705840000
Ga 3.1097100000 2.4011100000 24.6035000000 -0.6026990000 -1.6604840000 0.0609570000
Ga 1.4085100000 6.5782800000 23.5992400000 0.2057470000 1.4648040000 -1.1400770000
Ga 2.7998400000 0.3450900000 31.1034500000 -0.1602810000 0.2563090000 -0.2523040000
Ga 1.2121500000 3.2408900000 31.1583800000 -0.7173500000 0.0127680000 -0.9204470000
Ga 2.9878000000 6.0834300000 29.2578300000 -1.1864670000 -2.1683990000 -0.4798960000
Ga 3.0357000000 2.1909700000 28.0495500000 -1.4150750000 -0.0928090000 0.7804040000
Ga 2.8006300000 3.9098300000 35.4895100000 -0.9064960000 -0.1208450000 -0.0569750000
Ga 1.7206400000 6.7595500000 36.1513300000 -0.2408690000 0.0450930000 -0.0619470000
Ga 1.2315700000 1.1577200000 34.1244600000 0.9072160000 0.5941800000 -0.0256520000
Ga 2.5999200000 5.8093900000 32.8170400000 0.2505100000 -0.2226790000 -0.2947030000
O 3.0074800000 7.5573900000 22.8477500000 0.2836060000 -0.6490240000 -0.9606560000
O 1.5100500000 1.4059100000 25.3126500000 -0.0776040000 0.9548560000 -0.4192650000
O 3.3260100000 2.1398700000 22.8232300000 -0.5401420000 0.9593730000 -0.3590480000
O 4.3116200000 6.8414600000 25.3422400000 0.4592890000 -0.6286140000 1.2222940000
O 1.7912500000 4.9989000000 22.8192500000 -0.3213480000 -0.1788360000 0.2964300000
O 2.8150000000 4.0448800000 25.3949400000 0.4912830000 0.7357150000 0.4023360000
O 1.4064400000 3.2430000000 27.6719300000 0.7518730000 -1.0555870000 0.4083210000
O 1.3469300000 5.0996300000 29.8053700000 0.8267670000 0.0410840000 0.2797600000
O 2.9203100000 5.8283600000 27.2851200000 -0.4631180000 0.4101980000 1.2128650000
O 2.7917000000 2.1715500000 30.1198600000 0.4228610000 0.8008850000 -0.2451350000
O 2.9227300000 0.3565700000 27.4069000000 -1.1615260000 1.8321830000 2.0667980000
O 2.8026400000 7.7265700000 29.9724300000 0.0110060000 0.7337870000 0.8539830000
O 4.1611300000 6.8008300000 32.4130000000 -0.0581780000 -0.2256180000 -0.3937680000
O 2.8321400000 0.4523400000 34.9164300000 -0.8136590000 -0.2500360000 -0.2034770000
O 1.2481900000 1.1990900000 32.2129800000 -0.1209250000 0.6675580000 0.0891210000
O 2.6128000000 5.6085100000 34.6602500000 0.0811090000 0.1995140000 0.2546840000
O 2.6031900000 4.0421300000 32.1285100000 1.0015810000 -0.2453230000 -0.1484030000
O 1.1706800000 2.9640300000 34.8272700000 0.9967120000 -0.3826670000 -0.1862300000
Si 1.8178000000 4.7341800000 10.9532300000 -0.1305040000 -0.3835270000 1.7736280000
Si 0.4035100000 2.0636100000 11.0309400000 -1.8415360000 -0.7876690000 0.0495590000
Si 3.3060000000 7.3797300000 10.9305000000 1.6002580000 0.8329730000 1.7103370000
Si 1.9183800000 2.8734600000 8.4488400000 0.0244980000 -1.6129900000 0.7251390000
Si 0.3940600000 0.1594600000 8.4258100000 0.4085340000 -0.0579270000 -0.2116440000
Si 3.5202500000 5.5473900000 8.5487300000 -0.2032180000 -1.6991790000 -0.9225630000
Si 1.8110300000 4.9260700000 16.0776700000 1.2832150000 0.3770570000 -0.0777430000
Si 3.2491500000 2.3096000000 16.1601300000 2.8511150000 -0.1845730000 0.4990180000
Si 3.4038300000 7.6687400000 16.0333000000 -0.5277750000 -3.0908530000 -0.2039600000
Si 1.6818300000 5.0540300000 21.2000300000 -0.8811040000 -0.1238940000 -1.6186160000
Si 3.0273200000 2.4541900000 21.2361900000 3.0435700000 -1.8478210000 1.0297300000
Si 3.1338900000 7.7553100000 21.0400400000 -0.5421170000 -1.8408210000 2.7523340000
Si 3.4602400000 4.0204900000 13.5592300000 0.6078910000 -0.7366820000 -0.1778280000
Si 1.9316000000 1.3338700000 13.5717600000 0.1745820000 -0.7786180000 -0.5099140000
Si 1.9230700000 6.6032300000 13.4834000000 -0.1262020000 1.2946010000 0.4526360000
Si 1.7482900000 3.2780200000 18.7165300000 -0.5667760000 -1.1096340000 -1.3778310000
Si 0.2343400000 0.5096700000 18.6434000000 -0.8034780000 1.0067370000 -0.5430200000
Si 3.3251200000 5.9112800000 18.6338300000 -0.0213140000 -1.5330900000 -1.3112880000
C 2.0141500000 4.6032900000 7.9385400000 -0.6461110000 0.7598350000 -0.3836180000
C 0.3816800000 1.9237900000 7.8230400000 -0.2136360000 0.4531790000 -0.0792940000
C 3.5236200000 7.1743300000 7.7956300000 -0.6813690000 2.2398530000 0.3019630000
C 1.8526100000 2.9060000000 10.4060300000 1.4918000000 0.8925250000 -1.2109940000
C 0.2935600000 0.2349100000 10.3140700000 -0.6038560000 0.9610400000 -0.0656110000
C 3.3154200000 5.6387400000 10.4093400000 1.2401030000 -1.0835970000 -1.0737240000
C 1.8311800000 4.9544400000 17.9474100000 -0.6481340000 1.1065050000 0.9668440000
C 3.2489900000 2.3412400000 18.0632500000 0.7591260000 -0.4191690000 0.0467830000
C 3.3010500000 7.6020900000 17.9047000000 0.3764000000 1.0503850000 1.4276770000
C 1.9682800000 4.8883900000 12.9035600000 -1.1794050000 -1.5922270000 -0.8471010000
C 3.4854700000 2.2091100000 12.9101200000 -0.3877130000 -0.2070890000 0.3334200000
C 3.4643200000 7.4605900000 12.8361000000 -0.4293090000 1.2141510000 0.2854290000
C 3.4419800000 3.9878300000 15.4629400000 -1.5221340000 0.8373920000 -0.4042390000
C 1.9265900000 1.3617100000 15.4872700000 -2.5388910000 1.1225410000 -1.1012710000
C 1.8379800000 6.6767000000 15.3729400000 0.3921040000 0.7098740000 0.8700900000
C 1.6254500000 3.2785300000 20.5602100000 -1.8838450000 0.9604580000 0.6203710000
C 3.1256400000 0.6134200000 20.6308100000 0.4015870000 0.9909040000 -2.0557910000
C 3.1428700000 5.9397200000 20.4794400000 1.3470090000 0.2388800000 0.7757960000
H 1.9441200000 4.5279600000 6.8247200000 0.0824320000 0.4703040000 0.3089630000
H 3.2996400000 1.8438500000 6.7143600000 0.3947780000 0.3621830000 0.4053880000
H 3.4828200000 7.1729500000 6.6921700000 0.0463800000 -0.1187540000 0.1075140000
69
lattice="3.0729999540 0.0000000000 0.0000000000 1.5365000130 7.9838884020 0.0000000000 0.0000000000 0.0000000000 43.8005676270" Properties=species:S:1:pos:R:3:force:R:3 energy=-470.1865081400 virial="2.7291313856 -1.8670448391 14.2776905181 -1.8670448391 -14.9716322919 -2.7354898859 14.2776905181 -2.7354898859 -9.6405931854"
Ga 1.2620000000 4.6680100000 26.4153900000 1.3875390000 1.1112200000 1.0488930000
Ga 2.9849900000 7.8117600000 26.4169800000 -0.5275870000 -0.3516440000 0.4898420000
Ga 3.1560300000 2.3197100000 24.5420700000 -0.3541630000 0.7314600000 1.2411900000
Ga 1.3533500000 6.5755300000 23.6534100000 0.6156180000 -0.3423770000 -0.0146130000
Ga 2.7222700000 0.3494900000 31.0726600000 0.9944080000 0.5401870000 0.1318890000
Ga 1.2101300000 3.3613800000 31.0965800000 0.8233510000 -0.1671280000 -0.5503380000
Ga 2.9113500000 5.9524400000 29.2426600000 0.4706010000 0.0368710000 1.3425720000
Ga 3.0065100000 2.2219700000 28.1421900000 0.0571280000 0.2121250000 1.2736850000
Ga 2.7590600000 3.8178500000 35.5599800000 0.8665960000 1.1839040000 -0.4039430000
Ga 1.6925800000 6.8134900000 36.0820800000 -0.2565870000 -0.1220240000 -0.3221170000
Ga 1.1675400000 1.1975500000 34.0413400000 -0.7681250000 0.4004610000 0.1158270000
Ga 2.6471300000 5.7920900000 32.7389100000 -0.0541040000 0.0327640000 0.7028110000
O 2.9775500000 7.4427300000 22.8158200000 -0.2939730000 0.5587650000 0.8567800000
O 1.6163600000 1.4458700000 25.1154500000 -0.4751270000 -0.9053500000 0.7095720000
O 3.2354800000 2.3148600000 22.8172700000 0.0187960000 -0.0912110000 -1.2403790000
O 1.4510200000 6.7016100000 25.5135300000 -0.2292780000 0.6037580000 -1.4006220000
O 1.5201200000 4.9773400000 22.8226300000 0.4530300000 0.3434700000 -0.9014020000
O 2.9106400000 4.0527800000 25.4446100000 -0.5665520000 -0.6478710000 -0.5488000000
O 1.4794200000 3.1498500000 27.7372200000 -0.7266310000 0.8661690000 -0.7966700000
O 1.4111800000 5.1369300000 29.9687400000 -0.7521850000 -0.7060540000 -0.3280430000
O 2.9153400000 5.9201000000 27.4167300000 0.2118420000 -0.7220340000 -0.6712970000
O 2.9213500000 2.3278100000 30.0653700000 -0.3145790000 -0.1243970000 0.2469010000
O 2.8551100000 0.5330700000 27.4860200000 1.0714150000 -0.6970930000 -0.7861280000
O 2.8678900000 7.6665100000 30.0336200000 -0.9999720000 0.1820340000 -0.2897690000
O 4.1751500000 6.7469600000 32.2618600000 0.4838020000 -0.2178100000 0.5382960000
O 2.6541800000 0.5158000000 34.7982300000 1.4522980000 -0.7823620000 0.0595780000
O 1.1427000000 1.2793200000 32.1758600000 0.1883220000 0.2721210000 -0.4366160000
O 2.6334400000 5.6060200000 34.6542400000 0.0113740000 -0.2819700000 -0.0026920000
O 2.8179400000 4.0229300000 32.1201000000 -0.7181780000 -0.1709820000 0.0054280000
O 1.2988000000 2.8829100000 34.9890500000 -1.3134880000 -0.1501120000 -0.3891890000
Si 1.8548000000 4.7621100000 11.0245700000 0.6264750000 0.2374810000 0.1143790000
Si 3.4227600000 2.0781000000 11.0660000000 0.8632220000 0.7038410000 -0.9112990000
Si 3.3704800000 7.4886500000 11.1436500000 -0.1541480000 -0.6648700000 -1.6721860000
Si 1.9933900000 2.8276000000 8.4906400000 0.4057370000 1.9424100000 0.9629540000
Si 0.3916000000 0.2786000000 8.4208800000 -0.8720520000 0.0691670000 1.6885130000
Si 3.5242100000 5.5273800000 8.5154800000 -1.3173420000 1.8370210000 1.1933680000
Si 1.7436600000 4.8963300000 16.0647300000 -0.3292950000 0.6140730000 0.7426300000
Si 3.3708100000 2.3271800000 16.1103600000 -2.5733620000 0.3413460000 0.3589340000
Si 3.3748100000 7.5824000000 16.0833200000 0.0361790000 0.7817350000 0.3147150000
Si 1.6919300000 5.0644400000 21.1212900000 0.9946420000 -1.4812500000 1.4111840000
Si 3.2511800000 2.3955600000 21.2199600000 -0.1968180000 0.3554410000 -0.8502140000
Si 3.0899500000 7.6651100000 21.1452800000 1.1994290000 0.4084040000 -1.7027140000
Si 3.4858800000 3.8851900000 13.4845400000 -0.9399960000 1.1432130000 1.3387130000
Si 1.9375500000 1.3254000000 13.6218300000 -1.2098930000 -0.7954960000 0.3490300000
Si 1.8709700000 6.6394700000 13.6355700000 -0.1940070000 -1.2455000000 -0.5268450000
Si 1.6419000000 3.2013000000 18.6670900000 1.5398630000 0.8302360000 0.0894300000
Si 0.2239400000 0.6112400000 18.5896700000 0.1462350000 -0.0615200000 0.4701740000
Si 3.3125100000 5.8865900000 18.5239800000 -1.1869490000 0.1789300000 1.6141980000
C 1.9516900000 4.6659300000 7.9503600000 0.7318060000 -0.5790320000 -0.5104310000
C 0.4913100000 2.0376200000 7.8327900000 -0.9606350000 -0.0406370000 0.2620390000
C 3.4276300000 7.3939700000 7.9265100000 1.5293290000 -1.6657170000 -0.8229790000
C 1.9615400000 2.9715300000 10.3866400000 -1.2545330000 -0.0775390000 0.4155940000
C 0.2663800000 0.3698800000 10.3946000000 0.9829600000 -0.8982240000 0.1122200000
C 3.4047900000 5.6697300000 10.4486800000 -0.0014030000 0.1199920000 -0.4524730000
C 1.6989300000 4.9372900000 17.9680500000 1.2014200000 0.7802330000 -0.4959670000
C 3.2451800000 2.3981000000 17.9830700000 -0.6272050000 -1.2337100000 0.0525700000
C 3.3420500000 7.7147200000 17.9516900000 -0.7278360000 -1.0091910000 0.2102390000
C 1.9353300000 4.7925400000 12.9155600000 -0.2077450000 0.4096550000 0.0476730000
C 3.4531200000 2.0914100000 12.9265600000 0.3798610000 0.9424960000 0.1456440000
C 3.3880800000 7.5036600000 13.0331800000 0.6194530000 0.2348270000 -0.6042950000
C 3.2553700000 4.0874400000 15.4524100000 1.4666820000 -1.4746970000 -1.1521270000
C 1.6969200000 1.4130800000 15.5037400000 3.0129140000 -0.7950900000 -0.8059990000
C 1.8701100000 6.6752100000 15.5014800000 -0.8971970000 0.2916840000 -0.1757820000
C 1.7166700000 3.2844800000 20.5323200000 -0.2091600000 -0.5463300000 0.5245900000
C 3.1666300000 0.6367200000 20.5073000000 -0.3027940000 -0.8047620000 0.9171830000
C 3.2984500000 5.8985800000 20.5347800000 -1.8853640000 1.1378430000 -1.6748280000
H 1.9032700000 4.7192600000 6.8490000000 0.1019110000 -0.0746430000 -0.1817190000
H 0.4861100000 2.3018400000 6.7714900000 -0.0365660000 -0.4812920000 -0.4469900000
H 3.5963600000 7.3822700000 6.8266200000 -0.5094090000 -0.0254170000 -0.0297710000
69
lattice="3.0729999540 0.0000000000 0.0000000000 1.5365000130 7.9838884020 0.0000000000 0.0000000000 0.0000000000 43.8005676270" Properties=species:S:1:pos:R:3:force:R:3 energy=-470.3713313600 virial="-4.8419175060 0.6592450205 11.9985504685 0.6592450205 -12.0936596821 -9.5817703502 11.9985504685 -9.5817703502 -4.7974080037"
Ga 1.2857800000 4.6549400000 26.4342300000 0.8362640000 1.9435450000 -0.5274820000
Ga 3.0389600000 7.8232100000 26.4018600000 -0.7009470000 -0.8835580000 -0.1327360000
Ga 3.1623200000 2.2907800000 24.5501900000 -0.8630260000 1.1575250000 -0.7760940000
Ga 1.3498400000 6.5772700000 23.6635600000 0.4403180000 -0.2017580000 -1.1438280000
Ga 2.7255600000 0.3764600000 31.0712900000 0.0231510000 -0.6869190000 -0.3829570000
Ga 1.2097200000 3.3888000000 31.0456600000 1.1973990000 0.4098060000 0.5113730000
Ga 2.8889700000 5.8915300000 29.2743800000 0.2141520000 0.8396470000 0.0655990000
Ga 3.0006300000 2.2408400000 28.2269000000 -0.6985090000 -0.1006360000 -1.7795790000
Ga 2.7580600000 3.8102400000 35.5716700000 0.1535460000 1.2221530000 -0.3536860000
Ga 1.6744500000 6.8309400000 36.0483800000 -0.1843200000 -0.3871420000 -0.1177430000
Ga 1.1428300000 1.2281300000 34.0072900000 -0.1079720000 -0.2902860000 0.7527230000
Ga 2.6846500000 5.7703100000 32.7293000000 -1.2427360000 0.8828940000 1.4179940000
O 2.9416500000 7.4357000000 22.8383600000 0.3027970000 0.3790480000 0.1324530000
O 1.5865100000 1.4145100000 25.0854500000 0.3513560000 -1.0351230000 0.9169220000
O 3.1967900000 2.3824000000 22.7517400000 0.0555970000 -0.1491220000 0.9253670000
O 1.5226000000 6.6932200000 25.4741800000 -0.4344930000 0.5069750000 -0.3459140000
O 1.4625000000 5.0037300000 22.7515200000 0.3865720000 0.1938750000 0.5019220000
O 2.9098300000 4.0234300000 25.4348600000 -0.2521080000 -0.3635720000 -0.4079950000
O 1.3895700000 3.2613500000 27.6419200000 0.6504940000 -2.1130530000 1.6375580000
O 1.3698100000 5.1174300000 29.9590500000 -0.3987390000 -1.3408660000 0.2930610000
O 2.9214800000 5.8704600000 27.4374100000 0.2717330000 -0.4919270000 -0.4703180000
O 2.9580200000 2.3813800000 30.0554300000 -0.9281250000 -0.2682420000 0.5476450000
O 2.9500200000 0.4583800000 27.4204400000 0.8326840000 1.5319850000 0.6406600000
O 2.7528100000 7.6350600000 30.0066900000 0.0933320000 0.8789750000 0.4117700000
O 4.1260400000 6.7361100000 32.2264900000 1.7215990000 0.2820170000 0.4103230000
O 2.6638300000 0.4166900000 34.7868000000 0.5942430000 0.4319630000 -0.9594200000
O 1.1250900000 1.3401200000 32.1051300000 0.4275990000 0.1512430000 0.1231170000
O 2.6535900000 5.5645500000 34.6618900000 -0.1012370000 -0.0448790000 -0.2038370000
O 2.9164600000 4.0657900000 32.1826900000 -0.9894300000 -1.5852930000 -0.9840590000
O 1.2379500000 2.8687600000 35.0188600000 -0.4222740000 -0.4299770000 -0.5036430000
Si 1.9272300000 4.7710900000 11.0673800000 -0.8041270000 0.9780500000 0.2272890000
Si 3.4302500000 2.1371100000 11.0319300000 -0.4040690000 -1.2898880000 0.2532610000
Si 3.4099400000 7.4835200000 11.1430100000 0.5547870000 -0.4540980000 -0.9688440000
Si 2.0190700000 2.9129800000 8.5403700000 -0.6923350000 0.5575210000 -0.3332030000
Si 0.3725700000 0.2798800000 8.4815000000 0.6647470000 0.3121570000 1.9189660000
Si 3.4802800000 5.6326800000 8.5186400000 -0.2042960000 -2.1422870000 0.4184910000
Si 1.7193900000 4.9454900000 16.0904100000 1.3373900000 -1.1318730000 -0.7025420000
Si 3.3301000000 2.3144700000 16.0866600000 0.7165470000 -1.1266680000 0.0865310000
Si 3.3441200000 7.5861500000 16.1530500000 -0.1101280000 -0.3989380000 -1.8008750000
Si 1.7008000000 5.0444500000 21.1323700000 -0.1064530000 -0.9820130000 -0.9711500000
Si 3.2852600000 2.3374200000 21.1582600000 1.2616150000 0.0652090000 0.1541490000
Si 3.1334000000 7.6811400000 21.1062400000 0.4639950000 -1.4969740000 0.5671110000
Si 3.4132000000 3.8992600000 13.4918300000 0.9735510000 0.5562150000 1.4581810000
Si 1.8897000000 1.3122300000 13.6335700000 0.0223090000 -1.1962120000 -0.7546080000
Si 1.8456900000 6.6011600000 13.6457700000 0.3810960000 -0.2107230000 -0.5951680000
Si 1.6793300000 3.2190000000 18.6456300000 0.2623670000 0.1324290000 -0.7836490000
Si 0.2103800000 0.6256700000 18.6039900000 -0.5775590000 -1.3565400000 0.2507990000
Si 3.2628300000 5.8930000000 18.5616700000 -0.3971570000 -0.7107710000 0.4202430000
C 1.9424500000 4.6660400000 7.8690500000 0.0521880000 0.7440270000 0.7837020000
C 0.4823800000 2.0419100000 7.8605200000 -0.3430370000 -0.3074330000 1.0554720000
C 3.4668500000 7.3506800000 8.0035700000 -0.5089620000 1.2702350000 -1.8261660000
C 1.8681600000 2.9912500000 10.4622100000 0.9982100000 0.4351260000 -1.1179930000
C 0.3793000000 0.3460300000 10.4150600000 -0.7504250000 0.3098080000 0.2552830000
C 3.4185500000 5.6912800000 10.4688200000 0.7905660000 -0.4613800000 -0.8015420000
C 1.7044200000 4.9450700000 17.9339300000 0.2408580000 0.9155060000 0.8731060000
C 3.2017100000 2.3644100000 17.9594600000 0.8379680000 -0.3981300000 0.5844730000
C 3.2822800000 7.6491700000 17.9475200000 0.0281200000 0.7972010000 1.8244500000
C 1.9427600000 4.8376500000 12.9798900000 -1.4163970000 -0.5350710000 -1.0075770000
C 3.4388900000 2.1084100000 12.8919900000 -0.2626340000 0.6591740000 0.9303080000
C 3.3974200000 7.4370600000 13.0236800000 -0.1292090000 1.2806820000 -0.3781990000
C 3.3552400000 4.0075900000 15.4244800000 -0.9965670000 0.5956530000 -0.1951960000
C 1.8726900000 1.3223300000 15.5034000000 -1.0780800000 1.2950140000 -0.2085930000
C 1.8025900000 6.6783900000 15.4894000000 0.0666680000 0.5125860000 0.7982500000
C 1.8637800000 3.1888200000 20.4742000000 -2.6777030000 1.2080960000 0.6862880000
C 3.1631100000 0.5185400000 20.6192700000 0.0104780000 1.6376820000 -1.5203500000
C 3.2293800000 5.9401300000 20.4532800000 0.0210830000 -0.7197670000 0.1910100000
H 1.8563200000 4.5452600000 6.7645200000 0.2031250000 0.3427020000 0.3066460000
H 0.4126300000 2.0325200000 6.7706900000 0.0794500000 0.2268040000 -0.3356930000
H 3.3689400000 7.4591800000 6.8955400000 0.2631000000 -0.3524060000 0.0581430000
69
lattice="3.0729999540 0.0000000000 0.0000000000 1.5365000130 7.9838884020 0.0000000000 0.0000000000 0.0000000000 43.8005676270" Properties=species:S:1:pos:R:3:force:R:3 energy=-470.4512219600 virial="-8.8534336506 -0.1897824542 6.6825826175 -0.1897824542 -9.4213791918 9.3285571603 6.6825826175 9.3285571603 -10.5053089852"
Ga 1.6541000000 4.7552400000 26.3340400000 0.0949960000 -0.2998350000 0.0310240000
Ga 3.0003400000 7.6465500000 26.4578900000 0.3553270000 1.2912600000 0.1757300000
Ga 3.1097300000 2.3501400000 24.6918800000 0.0259570000 -0.6443800000 0.1115260000
Ga 1.8166400000 6.5325200000 23.5872300000 -0.9197810000 -0.8868800000 0.4541020000
Ga 2.9253200000 0.2498700000 30.9673200000 0.2354700000 -0.0471910000 -0.3252790000
Ga 1.2743000000 3.1053300000 31.0578100000 -0.0733800000 0.6574760000 -0.4820390000
Ga 2.7750900000 5.8011500000 29.2627100000 0.7521120000 -1.2461440000 -0.0865510000
Ga 3.1162000000 2.2015100000 28.0242000000 0.7997420000 -0.3179770000 0.1176830000
Ga 2.6188300000 3.9979500000 35.4857700000 0.5200110000 0.6826550000 -0.2222000000
Ga 4.1593900000 6.8388900000 35.7968000000 0.1793270000 -0.1606030000 -0.0452490000
Ga 1.2228800000 1.4500100000 34.0104900000 0.3451880000 -1.1481880000 0.0041690000
Ga 2.9633300000 5.6623000000 32.5969600000 0.8565200000 0.6418970000 1.1999510000
O 3.2861700000 7.3124400000 22.8907600000 0.9548780000 0.7549010000 -0.5536420000
O 1.5564300000 1.4574800000 25.4354500000 0.0132850000 0.5828370000 -0.8711200000
O 3.1256400000 1.8545200000 22.9514200000 0.1400810000 0.4021180000 -0.3546890000
O 1.6721400000 6.7687400000 25.3655800000 -0.4450550000 -0.4168600000 0.6108840000
O 1.6407500000 4.8826700000 22.8619400000 0.1212680000 -0.0563990000 -0.0395990000
O 3.2428900000 4.1954000000 25.2410700000 -0.5607740000 -0.8130330000 0.3058370000
O 1.6444500000 3.1857500000 27.6533900000 -1.2603390000 0.6171050000 -0.6231220000
O 1.2797600000 4.9422900000 29.9991800000 -0.3785080000 0.4208440000 -0.6846930000
O 3.1138500000 5.6863600000 27.3300300000 -0.3354030000 0.8197430000 0.9503250000
O 2.9170600000 2.2814900000 29.9089700000 0.2935800000 -0.7496170000 1.3420460000
O 2.9612800000 0.4438700000 27.4083600000 0.6918490000 -0.6379290000 0.2371580000
O 2.9616400000 7.5563300000 29.7614700000 -0.2896760000 1.1059910000 1.8523880000
O 1.5121600000 6.7713800000 32.3884300000 -1.3414330000 0.1891000000 -1.2164860000
O 2.7762200000 0.7119700000 34.8324900000 -0.3639020000 -0.0990290000 -0.8345770000
O 1.4465200000 1.2800500000 32.0549700000 -0.5198750000 0.0933080000 -0.2728470000
O 2.9396700000 5.6899700000 34.5297300000 -0.1228290000 -0.0191800000 -0.0908220000
O 2.7247300000 3.9233600000 32.0698100000 0.7658760000 -0.8649130000 -0.3114550000
O 1.1267800000 3.1560000000 34.6836100000 -0.1651900000 0.2724470000 0.0818290000
Si 1.7004300000 5.0917400000 11.1759300000 -0.0650880000 -0.4640830000 -0.2996950000
Si 3.2288300000 2.4083600000 11.1149400000 -0.3187280000 0.3313120000 0.6104690000
Si 3.1788300000 7.7775800000 11.1077100000 0.5824150000 -0.9675050000 0.7271220000
Si 1.8182900000 3.2744200000 8.6207500000 -0.9934930000 0.3049780000 -0.7254190000
Si 0.1594500000 0.7229700000 8.5924700000 0.0824370000 -2.9224070000 0.3300000000
Si 3.2426900000 5.9510300000 8.5878600000 0.6301660000 -0.4649420000 0.6577500000
Si 1.7495600000 4.7949000000 16.1333900000 0.1883140000 1.0617170000 0.3946200000
Si 3.2312800000 2.1469700000 16.1301400000 2.1748260000 0.8887340000 1.2961560000
Si 3.2315000000 7.5637900000 16.2164800000 -0.4740960000 -1.5769810000 -0.3343070000
Si 1.6870600000 4.7892300000 21.2250500000 -0.8769610000 -0.5735060000 -0.3987840000
Si 3.2526600000 2.0601200000 21.3416800000 -0.2480760000 2.2318210000 0.1050080000
Si 3.3348900000 7.3988500000 21.1886600000 -0.2634110000 0.0497520000 -0.8739720000
Si 3.2849700000 4.0429600000 13.6842400000 -0.3618400000 1.0473110000 -0.9919340000
Si 1.7313700000 1.4312300000 13.6404000000 0.0699580000 -0.1728700000 -0.2716520000
Si 1.7746500000 6.6876700000 13.6647300000 -0.7390470000 2.3032280000 0.1092920000
Si 1.7209200000 2.9670300000 18.7413000000 -0.9912020000 1.0671560000 -0.3894020000
Si 0.0722300000 0.3221000000 18.8095400000 0.5354070000 1.4898300000 -1.5056150000
Si 3.1276800000 5.7082300000 18.6441200000 0.9522880000 -1.2789210000 -0.1934030000
C 1.7481200000 5.0229400000 7.9668700000 -0.3654050000 0.6511060000 0.8551390000
C 3.3318800000 2.3898700000 7.9392200000 -0.0490890000 0.9877090000 0.6805110000
C 3.2279500000 7.7100000000 8.0055200000 0.4252930000 1.0847400000 -0.0561840000
C 1.6691100000 3.3024900000 10.5223800000 0.7570860000 0.1411060000 -0.6187900000
C 3.1902900000 0.6773100000 10.5103900000 0.0746650000 -0.3501160000 -0.9133710000
C 3.2329100000 5.9591400000 10.5562600000 -0.0370940000 0.3676450000 -1.1364270000
C 1.6567800000 4.7662500000 17.9824700000 -0.3857630000 0.3262050000 1.3401380000
C 3.2115600000 2.1209300000 18.0529900000 0.5804340000 -0.6039580000 0.5877760000
C 3.1330600000 7.5089900000 18.1252900000 0.5523380000 -0.5777160000 -0.3279470000
C 1.7178600000 4.9910700000 13.0479900000 0.4593980000 -1.1641530000 -0.0474160000
C 3.2587300000 2.3571700000 12.9936400000 0.1148190000 -0.9009720000 0.3076160000
C 3.2811000000 7.6872900000 13.0054800000 -0.0512370000 -1.2085050000 0.0528230000
C 3.3243600000 3.9419600000 15.5133200000 -1.0210320000 -0.4134430000 0.4309540000
C 1.8205500000 1.2708700000 15.5213700000 -2.5716110000 0.7497370000 -0.3125910000
C 1.6528300000 6.6356000000 15.5708900000 1.1134640000 -0.0299910000 0.2013440000
C 1.6973000000 3.0333600000 20.6650200000 0.2557160000 -1.5422100000 0.1446320000
C 0.2888900000 0.3692500000 20.6664800000 -1.1685810000 -1.4638330000 0.0971560000
C 3.1636500000 5.6288900000 20.5396600000 1.3784390000 1.1548600000 0.1196810000
H 1.8057900000 5.0539300000 6.8735800000 -0.1434140000 -0.1092610000 -0.2631850000
H 3.2291600000 2.2733200000 6.8528300000 0.1813970000 0.3765190000 -0.1824640000
H 3.3505300000 7.7072900000 6.8928900000 -0.3530130000 0.0463820000 0.3340920000
69
lattice="3.0729999540 0.0000000000 0.0000000000 1.5365000130 7.9838884020 0.0000000000 0.0000000000 0.0000000000 43.8005676270" Properties=species:S:1:pos:R:3:force:R:3 energy=-469.9840207700 virial="1.8850740045 -5.5682688510 -3.0030029943 -5.5682688510 -12.8835759085 5.8243460490 -3.0030029943 5.8243460490 1.3851134414"
Ga 1.5849900000 4.7323900000 26.2589100000 -0.5123590000 0.7504360000 1.7688300000
Ga 2.9119400000 7.7491700000 26.5285500000 1.3455960000 -0.4654290000 0.5712090000
Ga 3.1613400000 2.2928900000 24.6974700000 -0.4692800000 -0.4793030000 -0.3181200000
Ga 1.8574700000 6.4060700000 23.6168100000 0.1004690000 1.0015360000 0.8164540000
Ga 3.0217200000 0.2561300000 30.9575000000 -1.3811510000 0.2273420000 0.8161140000
Ga 1.2486300000 3.0969500000 30.9652200000 1.9058430000 -0.0347590000 0.4753330000
Ga 2.9059500000 5.7458900000 29.2715800000 -0.3795300000 1.2903700000 0.7666700000
Ga 3.2222200000 2.2161500000 28.0776200000 -1.1407720000 -0.2586590000 0.5375100000
Ga 2.6917400000 4.1579800000 35.4098400000 -0.2179260000 -1.4578550000 0.0710280000
Ga 4.0165200000 6.7751800000 35.8060100000 0.3344660000 0.6872180000 -0.0407220000
Ga 1.2604800000 1.4409100000 33.9915700000 -0.6682350000 -0.2776550000 0.0346660000
Ga 2.9942300000 5.6705000000 32.6117100000 -1.4320060000 -0.3045000000 -1.1455570000
O 3.4103400000 7.4222700000 22.9064200000 -0.7473910000 -1.2187520000 0.5715700000
O 1.5929200000 1.4553000000 25.3657000000 0.1390750000 -0.7352130000 0.2119560000
O 3.1414800000 1.9861400000 22.9401500000 0.2684130000 0.2241160000 -0.3395700000
O 1.6164200000 6.6069100000 25.4887700000 0.1009350000 0.2780480000 -1.7823370000
O 1.6096400000 4.7876200000 22.8907700000 0.2058580000 -0.1397050000 -0.9262570000
O 3.0690700000 4.0457300000 25.3212000000 0.7075250000 0.3668000000 0.1688270000
O 1.6156600000 3.2167200000 27.6456800000 0.7339810000 0.0528260000 -0.3148880000
O 1.3436400000 4.9175500000 29.8849200000 0.6995360000 -0.9374560000 -0.2796170000
O 3.1536700000 5.9118100000 27.4439400000 -0.2947740000 -0.7410870000 -0.8638360000
O 3.0351100000 1.9810300000 29.9655700000 -0.2900430000 1.5919190000 -0.4291610000
O 3.0472900000 0.4232600000 27.5703300000 -0.6659800000 0.2935980000 -0.7421500000
O 2.9221100000 7.5729100000 30.0875100000 1.2922280000 -1.4037530000 -1.5468230000
O 1.3395400000 6.5905300000 32.0217200000 1.7566870000 -0.1252910000 1.2408040000
O 2.7422300000 0.6225700000 34.7352800000 0.4895020000 -0.2100110000 -0.1810370000
O 1.3757300000 1.3540400000 32.1176700000 -0.0510210000 -0.2244930000 -0.3663010000
O 2.8341500000 5.7332300000 34.4485300000 -0.1220500000 0.8759710000 -0.0553740000
O 3.0165800000 3.8681000000 31.9580700000 -1.9230720000 0.8262940000 0.6652720000
O 1.1360300000 3.2106000000 34.6556900000 0.3929200000 0.1463740000 0.5076470000
Si 1.6550300000 5.0524600000 11.0727500000 -0.5061080000 -0.2532720000 1.6739540000
Si 3.2966400000 2.4334400000 11.1621200000 -1.4469420000 -0.5147140000 -0.5560240000
Si 3.2582100000 7.6832900000 11.0962200000 -0.3354090000 0.1359500000 0.7224380000
Si 1.5083700000 3.3646300000 8.5423700000 1.5179450000 -1.4352020000 1.7026050000
Si 0.1344700000 0.6111200000 8.6577400000 -0.9010540000 1.1979010000 -0.3726030000
Si 3.2105700000 5.9700700000 8.5783400000 -1.5953250000 -0.2012910000 -0.2127870000
Si 1.6426900000 4.9310100000 16.2847700000 1.3595940000 -0.9785230000 -1.4044160000
Si 3.2643300000 2.2576900000 16.2297800000 0.5199970000 -0.8312460000 -1.1607120000
Si 3.2317200000 7.5167000000 16.1691000000 -0.0213980000 1.0790890000 -0.8256960000
Si 1.6787200000 4.6801900000 21.2111600000 1.2257140000 0.1749030000 0.3466970000
Si 3.2952400000 2.0807400000 21.3436600000 1.5612760000 -0.6479020000 0.1676070000
Si 3.3357800000 7.4134500000 21.2066800000 -1.4871770000 -0.9519950000 -0.7794190000
Si 3.1873100000 4.1261700000 13.6663600000 0.9263650000 -0.1529200000 0.5178630000
Si 1.6040200000 1.4003900000 13.6143700000 1.1755400000 0.8325070000 0.9222330000
Si 1.6063900000 6.7993500000 13.6674400000 0.7671250000 -0.8631120000 -0.4354600000
Si 1.7340200000 3.0490300000 18.7474600000 -0.2259660000 -0.4437440000 0.8031870000
Si 0.2027900000 0.4143300000 18.6816300000 -0.5770080000 -0.8447410000 0.4783950000
Si 3.2170000000 5.6957600000 18.7614500000 0.0035870000 0.0733030000 -1.8420640000
C 1.5944600000 5.0722200000 7.9779900000 1.0488530000 1.0056800000 0.3520930000
C 3.0841500000 2.4620900000 8.0550200000 -0.5500340000 -1.4654990000 -0.7954580000
C 3.1527600000 7.7271900000 7.9721100000 1.1962620000 0.5654320000 0.5770500000
C 1.6862000000 3.3072000000 10.4901800000 0.4982980000 -0.2962020000 -0.4250420000
C 0.1980600000 0.6288200000 10.5261100000 -0.2478210000 -0.2846810000 -0.0595550000
C 3.1480100000 5.9062000000 10.4533200000 1.2017070000 0.9742290000 -0.0754210000
C 1.6741600000 4.7931100000 18.1682700000 0.2090650000 1.1129990000 -1.0067430000
C 3.2491000000 2.2101300000 18.1238100000 0.4772990000 -0.6699110000 -0.4298250000
C 3.2332600000 7.4612500000 18.0060700000 0.4069180000 0.4783390000 1.8077690000
C 1.7026700000 5.0498800000 13.0554200000 -1.1314390000 -0.6636400000 -1.2236580000
C 3.1859500000 2.3405700000 13.0241400000 -0.4377820000 0.1069880000 -0.0413220000
C 3.1656000000 7.6359200000 13.0011200000 -0.1258360000 0.3118400000 -0.2532230000
C 3.2791100000 4.0047400000 15.5871800000 -1.3660590000 0.8799330000 0.2571580000
C 1.7758700000 1.3382900000 15.5334800000 -1.1599370000 0.2017850000 0.6194670000
C 1.6847800000 6.6769300000 15.5176600000 0.0223870000 -0.1712370000 1.1322810000
C 1.8753300000 2.9033300000 20.6575900000 -2.9062330000 1.1940680000 -0.3748140000
C 0.1850500000 0.3035100000 20.6811200000 1.8394380000 0.3464660000 -1.3676680000
C 3.2808900000 5.5576700000 20.5271000000 -0.8937870000 1.4035720000 2.9159510000