106
lattice="3.0729994770 0.0000000000 0.0000000000 0.0000000000 15.9677772520 0.0000000000 0.0000000000 0.0000000000 36.0000000000" Properties=species:S:1:pos:R:3:force:R:3 energy=-728.2050030700 virial="3.2064967153 0.5064682648 -7.1377890330 0.5064682648 -18.4176231893 -7.3372296556 -7.1377890330 -7.3372296556 -0.2046005658"
Ga 1.6102700000 1.4017900000 23.5283600000 -0.0378470000 -0.1085320000 0.1565800000
Ga 3.0062300000 3.8279000000 21.6202600000 0.0863000000 -0.1653690000 0.6210270000
Ga 3.0424900000 1.9420600000 27.8452400000 0.1027460000 1.1257250000 0.5813710000
Ga 0.0950800000 3.8066800000 25.3348100000 0.4473170000 0.9741910000 -0.1375810000
Ga 1.6452600000 6.2034300000 23.4231100000 -0.2418010000 1.0563020000 0.5854320000
Ga 1.2872000000 8.2630800000 20.6816800000 1.1307640000 -0.7384930000 0.9453640000
Ga 1.3784000000 4.9248100000 28.5712900000 0.0788770000 0.1852470000 -0.5272570000
Ga 3.0347400000 7.2217300000 26.3449400000 -0.1902770000 -0.1130130000 0.7511290000
Ga 3.0025500000 9.3741400000 23.6511700000 0.2476200000 -1.1120460000 -0.2053340000
Ga 1.5758700000 11.7525800000 21.7840500000 0.1706070000 0.5510390000 -0.4547960000
Ga 1.4948200000 9.7117900000 28.0235100000 0.1820790000 -0.0173750000 0.0760450000
Ga 1.5084800000 11.6719400000 25.5722300000 0.0701390000 -0.2590480000 -1.5009880000
Ga 0.1745700000 14.2092900000 23.6602000000 -0.2858240000 -0.0721870000 -0.6527680000
Ga 0.2597800000 0.1004600000 20.7189100000 -0.4393420000 0.2591790000 -0.3200930000
Ga 0.5275000000 13.0240100000 28.6708200000 -0.1031010000 -0.2347620000 -0.1523330000
Ga 1.7346600000 15.3348300000 26.4871000000 -0.2261630000 0.1616530000 -0.8203440000
O 0.1406200000 0.2800900000 22.5563700000 -0.0574440000 0.1483650000 0.1050970000
O 0.2218500000 3.7107700000 19.8789500000 -0.2254460000 0.2061710000 -1.1109660000
O 1.4838700000 2.8967000000 22.2608000000 0.3832980000 0.2520580000 -0.0322430000
O 0.0739300000 2.1332300000 24.5973900000 -0.1307170000 -1.4204240000 -0.6532870000
O 1.5118500000 1.1377500000 27.1444200000 0.3499440000 -0.7474590000 -0.3031970000
O 1.4434000000 6.5793300000 19.9293000000 0.1454330000 0.3845180000 -0.2635930000
O 0.0847900000 5.5489000000 22.4839100000 0.0613140000 -0.3344580000 -0.3416550000
O 1.6623700000 4.6959300000 24.7380500000 -0.6082150000 -0.0131790000 0.1146130000
O 0.0492000000 3.7692800000 27.2385400000 -0.0079890000 -0.5160760000 -0.1602030000
O 2.9300500000 9.1308400000 19.9050500000 -0.4997460000 -0.4108320000 -0.1004500000
O 1.5292500000 8.2816400000 22.5461200000 -0.2513340000 0.1333910000 -0.6101580000
O 2.9680100000 7.3486300000 24.5277800000 0.1523190000 -0.2742270000 -0.8844460000
O 1.4857000000 6.3556300000 26.9952800000 0.0113990000 0.4172140000 0.3884070000
O 1.4983600000 11.6678200000 19.9636100000 0.0879490000 0.1679860000 0.4290730000
O 0.0406000000 10.8200300000 22.2837000000 -0.1094730000 -0.2511030000 0.5048140000
O 1.4838300000 9.9283600000 24.7102000000 0.0112150000 0.5842630000 -0.0984610000
O 3.0559200000 8.9814400000 27.1263600000 -0.3322550000 -0.4091550000 0.1659940000
O 0.1685400000 14.4481900000 19.8717400000 -0.3576660000 0.3625490000 1.5978850000
O 1.7006900000 13.4755900000 22.6167800000 -0.3465200000 0.4583060000 0.4228590000
O 3.0568000000 12.4864700000 24.8161300000 0.0659210000 0.6022360000 0.6786870000
O 1.3545600000 11.5323300000 27.3978700000 0.1053990000 0.4503760000 0.2466740000
O 1.7383300000 1.0653700000 19.9793900000 -0.1410570000 -0.7222700000 -0.9850440000
O 1.6202400000 15.4080100000 24.5701400000 0.2661220000 -0.8998020000 0.4773240000
O 0.1973800000 14.5303500000 27.1199600000 -0.0670750000 -0.2431960000 0.2156850000
Si 3.0054700000 14.2873900000 8.1843100000 0.2997610000 0.7681810000 -0.5404590000
Si 2.9197700000 9.0103300000 8.1451500000 0.2212820000 -0.0819320000 0.5069350000
Si 2.9767200000 3.6971700000 8.2064600000 -1.2035270000 -0.0030760000 -0.1414430000
Si 1.4612400000 1.0295800000 8.2560400000 0.0100490000 -1.1939330000 0.1418710000
Si 1.3605700000 11.6708200000 8.2259100000 -0.3551680000 -0.7547690000 0.5113790000
Si 1.3688900000 6.3656400000 8.2615500000 -0.1380450000 -0.1327100000 0.9923400000
Si 2.9688700000 0.0996400000 10.6886700000 1.0899860000 0.2757630000 0.3167280000
Si 2.9566500000 5.4880700000 10.7903200000 0.6139790000 -0.7139590000 -0.9971210000
Si 3.0399800000 10.7601800000 10.7478700000 -0.8308420000 -0.1347790000 -0.0183400000
Si 1.5455500000 13.4246700000 10.6630100000 -0.6726330000 -0.3544190000 0.7615500000
Si 1.4952300000 8.1318800000 10.7585500000 -0.8126070000 -0.3057020000 -1.0074290000
Si 1.4196900000 2.8436800000 10.7101700000 -0.5652570000 -1.2746910000 0.2331580000
Si 2.9948600000 14.3371200000 13.2279800000 0.2568160000 0.6816160000 -0.3053150000
Si 3.0166100000 3.7330600000 13.1950500000 0.1973210000 0.3897680000 1.2969010000
Si 3.0204600000 9.0265500000 13.2215200000 0.6133360000 0.6948680000 0.3308660000
Si 1.5023600000 1.0740200000 13.1651500000 -0.0306850000 -0.1222460000 1.3778230000
Si 1.4779600000 6.3860100000 13.2459400000 -0.0623240000 -0.2465530000 0.1836300000
Si 1.5526700000 11.6921400000 13.2983000000 -0.8449180000 0.3668310000 -0.8581670000
Si 3.0570700000 1.9825400000 15.7268400000 -0.4714970000 -0.3114360000 -0.3470090000
Si 2.9529000000 7.2725300000 15.7107000000 0.1290380000 0.2473800000 -0.1392300000
Si 0.0578800000 12.6627400000 15.8286500000 -0.3499720000 -0.7575800000 -0.9939050000
Si 1.5289900000 9.9549400000 15.7513900000 -0.4182110000 0.2823390000 -0.3853950000
Si 1.4742700000 4.6325000000 15.7848100000 1.0982470000 0.4822510000 -0.7246410000
Si 1.4574200000 15.2776600000 15.6757300000 0.8272440000 -0.3158990000 1.8847610000
Si 3.0220900000 14.3991900000 18.2740700000 0.3301290000 0.2161020000 -1.0496140000
Si 0.0523000000 3.7650500000 18.2443700000 0.4822120000 0.4603300000 1.1207310000
Si 3.0254400000 9.1052000000 18.1858800000 0.1138600000 -1.2084170000 -0.3581740000
Si 1.5569800000 11.7507600000 18.3688100000 -0.4126640000 0.1989580000 -0.6243170000
Si 1.5376500000 6.4446600000 18.2806800000 0.0160090000 0.0426000000 -0.4157740000
Si 1.5724600000 1.0833100000 18.1634200000 0.4333430000 -0.0220830000 1.0192180000
C 2.9946700000 1.8746900000 7.6844800000 0.0668920000 0.8449440000 -0.4225680000
C 2.8558400000 12.5309000000 7.6204500000 1.1039240000 0.0298970000 0.3859960000
C 2.8829300000 7.2088900000 7.6812600000 0.5248250000 0.5176040000 -0.5223930000
C 1.5003700000 15.1880900000 7.6037100000 -0.9362870000 0.5076350000 -0.0582450000
C 1.3891500000 9.8942200000 7.5959700000 -0.1423010000 0.3425470000 0.9648630000
C 1.3684800000 4.6375300000 7.6525500000 1.3077160000 -1.2464030000 -0.5967710000
C 3.0691600000 14.2888900000 10.0133500000 -0.2863790000 0.3383290000 1.2395110000
C 2.9020400000 3.6785700000 10.0563900000 1.3443720000 0.7507450000 1.0032880000
C 2.9771500000 8.9844600000 10.0206800000 0.8015960000 0.3794280000 1.4247910000
C 1.4700700000 0.9894300000 10.1159100000 -0.7878040000 0.7153230000 -0.2182240000
C 1.4522500000 6.3178400000 10.1722800000 -0.7738150000 0.8384480000 -0.8328550000
C 1.4593500000 11.6246400000 10.1182900000 0.6159270000 0.5919290000 -0.5659950000
C 3.0431200000 0.2437300000 12.5692400000 -0.4098120000 -2.0376630000 0.1150790000
C 3.0182400000 5.5295100000 12.6249000000 -0.2408340000 -0.7587840000 0.2318870000
C 3.0436000000 10.8293200000 12.6560300000 0.6237900000 -0.8169630000 -0.5577610000
C 1.4592800000 13.4388500000 12.5697800000 0.4071830000 0.6448150000 0.3598470000
C 1.5174900000 8.1376900000 12.6330600000 -0.6950280000 0.4259430000 -0.4340240000
C 1.4827000000 2.8400500000 12.6273700000 -0.1506270000 0.5906650000 -0.8517720000
C 3.0309600000 9.0671500000 15.0781100000 0.2608030000 -0.1405100000 0.8438590000
C 3.0653400000 3.7911100000 15.1251000000 -1.1519540000 -1.2706670000 -0.4853310000
C 3.0277300000 14.4068900000 15.1380500000 -0.4483120000 -0.6712200000 -1.0736880000
C 1.4719500000 1.0217100000 15.1317600000 0.7458520000 2.0539460000 -1.4021550000
C 1.3900600000 6.3795400000 15.0981800000 0.8949220000 0.2940490000 0.0183100000
C 1.6017100000 11.7651900000 15.1354200000 -0.5158940000 -0.2151490000 1.0446450000
C 1.4816600000 15.2816600000 17.6236800000 0.3546340000 -0.0339730000 -0.6158390000
C 1.6187900000 4.6871500000 17.6205400000 -0.8365530000 -0.6571570000 1.0266130000
C 1.5007800000 9.9509200000 17.6599900000 -0.1046230000 0.9418960000 -0.2125790000
C 0.0048700000 12.6365600000 17.6722300000 0.1319810000 -0.4505170000 0.8665730000
C 0.0050900000 7.2862200000 17.5508000000 -0.4377970000 0.7902620000 1.5512420000
C 0.0457800000 1.9876900000 17.6191100000 -0.3459220000 0.0417100000 0.3583750000
H 1.3928500000 15.2171300000 6.5012400000 0.3067640000 0.0264570000 0.0179860000
H 3.0406200000 1.7531400000 6.5979000000 -0.0977050000 0.2212650000 -0.4811820000
H 1.4646400000 4.5996600000 6.5497200000 -0.2484050000 0.1752930000 -0.0163160000
H 2.8874400000 7.1310100000 6.5846100000 0.0429430000 -0.0080250000 -0.2890550000
H 1.4576900000 10.1031100000 6.5554700000 -0.0741360000 -0.1831210000 -1.5623210000
H 2.8448800000 12.5812600000 6.5393000000 0.0883330000 -0.1635490000 -0.7742060000
106
lattice="3.0729994770 0.0000000000 0.0000000000 0.0000000000 15.9677772520 0.0000000000 0.0000000000 0.0000000000 36.0000000000" Properties=species:S:1:pos:R:3:force:R:3 energy=-727.8481107300 virial="3.3690900517 0.5867450725 -7.3715079958 0.5867450725 -18.8489525385 -6.9545890006 -7.3715079958 -6.9545890006 -5.1893812739"
Ga 1.6019500000 1.3981100000 23.5193700000 -0.0021660000 0.1727990000 0.2010640000
Ga 2.9932000000 3.8336000000 21.6244700000 0.0241380000 -0.1687060000 0.2277220000
Ga 3.0324100000 1.9511300000 27.8658700000 0.4340410000 0.7359920000 0.3884080000
Ga 0.0975300000 3.8092300000 25.3391500000 0.2812420000 0.7284650000 -0.7271730000
Ga 1.6388100000 6.2142100000 23.4222400000 -0.4914780000 0.8254070000 0.4677120000
Ga 1.2916000000 8.2617100000 20.6746900000 1.3450360000 -0.7901380000 1.0480570000
Ga 1.3877700000 4.9221600000 28.5734900000 0.0444010000 0.1192110000 -0.5131480000
Ga 3.0239000000 7.2199000000 26.3619400000 -0.2254640000 0.1307450000 0.2433210000
Ga 3.0001500000 9.3762900000 23.6506400000 0.0954970000 -1.1911070000 -0.2766850000
Ga 1.5864900000 11.7490200000 21.7734700000 -0.1460840000 0.3690400000 -0.0994190000
Ga 1.4966200000 9.7202500000 28.0277000000 0.2225400000 0.0654350000 0.2781140000
Ga 1.4977500000 11.6654700000 25.5762800000 0.1462200000 -0.1222450000 -1.1138750000
Ga 0.1622200000 14.2043100000 23.6639000000 -0.1461160000 0.0176320000 -0.5103640000
Ga 0.2696500000 0.0913400000 20.7135300000 -0.2424890000 0.8538870000 -0.2767760000
Ga 0.5367600000 13.0387400000 28.6699300000 -0.1277760000 -0.1234090000 -0.0974860000
Ga 1.7447900000 15.3264700000 26.4763000000 0.2475100000 0.3872710000 -0.4048840000
O 0.1693700000 0.2804300000 22.5397400000 -0.1475040000 0.0080600000 0.2676220000
O 0.2662400000 3.6902300000 19.8806000000 -0.3604540000 0.2601460000 -0.7409830000
O 1.4660400000 2.9175100000 22.2429700000 0.5171100000 -0.1719640000 0.2671720000
O 0.0689900000 2.1170100000 24.5811900000 -0.1598930000 -1.0289910000 -0.5286170000
O 1.5302200000 1.1195900000 27.1498100000 0.0244300000 -0.4125470000 -0.0866190000
O 1.4401700000 6.5900500000 19.9189300000 0.1593820000 0.2854910000 0.0443730000
O 0.0585000000 5.5324500000 22.4898800000 0.2911790000 -0.0357520000 -0.3444210000
O 1.6533700000 4.7001300000 24.7197500000 -0.4364870000 -0.2044880000 0.3976190000
O 0.0766500000 3.7542200000 27.2125600000 -0.0404960000 -0.3188520000 0.1658730000
O 2.9498800000 9.1196000000 19.9065800000 -0.7708260000 -0.2163870000 -0.1853460000
O 1.5402300000 8.2920600000 22.5320500000 -0.2822270000 0.0918340000 -0.3889180000
O 2.9647600000 7.3183500000 24.5141500000 0.2576700000 0.0256280000 -0.3223060000
O 1.4736100000 6.3762000000 27.0107000000 0.0853060000 0.3063190000 0.4161050000
O 1.5140300000 11.6556500000 19.9653100000 0.0619280000 0.2527760000 0.8052810000
O 0.0281800000 10.8135400000 22.3052700000 0.2463410000 0.0274510000 0.2259730000
O 1.4642700000 9.9382700000 24.7058600000 0.1836750000 0.4076210000 -0.0112140000
O 3.0580400000 9.0003800000 27.1536400000 -0.3976220000 -0.7210010000 -0.1268990000
O 0.1519700000 14.4587700000 19.8906500000 -0.2866280000 -0.1133260000 1.4295010000
O 1.7007000000 13.4624000000 22.6300100000 -0.4118970000 0.5584950000 0.3875930000
O 3.0570900000 12.4877300000 24.8232000000 -0.0734070000 0.5380080000 0.7374130000
O 1.3694800000 11.5425200000 27.4373000000 0.1420410000 0.4314210000 -0.3188430000
O 1.7643900000 1.0617400000 19.9548400000 -0.3672740000 -0.8794280000 -0.6161950000
O 1.6279800000 15.4261700000 24.6053400000 0.2231540000 -1.0945190000 -0.4167260000
O 0.2312700000 14.5380500000 27.1031000000 -0.5366740000 -0.5312370000 0.3946130000
Si 2.9942800000 14.2748300000 8.1864400000 0.8176060000 0.7556370000 -0.5543870000
Si 2.9144500000 9.0247600000 8.1623500000 -0.2453740000 -0.6893390000 -0.2153820000
Si 2.9877600000 3.6951300000 8.1992500000 -1.8329440000 -0.0806710000 0.1885160000
Si 1.4533900000 1.0344600000 8.2454200000 0.7864670000 -1.3193490000 0.1227880000
Si 1.3603800000 11.6742200000 8.2169700000 -1.0093210000 -1.0399410000 0.4281640000
Si 1.3863800000 6.3577000000 8.2555600000 -0.6924330000 0.2925450000 1.6511230000
Si 2.9721700000 0.1091400000 10.6946100000 0.5384090000 0.1221260000 0.1782760000
Si 2.9545200000 5.4859000000 10.7850800000 0.6105270000 -0.6574220000 -0.9442390000
Si 3.0275800000 10.7579900000 10.7315200000 -0.8364020000 0.1629270000 -0.1552030000
Si 1.5256900000 13.4404400000 10.6651800000 -0.6150480000 -0.6798010000 0.7156130000
Si 1.4998400000 8.1305900000 10.7481800000 -1.1544380000 -0.4875350000 -0.2259040000
Si 1.4276900000 2.8425600000 10.6847400000 -0.5682550000 -1.2907960000 0.8165880000
Si 2.9720300000 14.3370100000 13.2367200000 0.5189460000 0.8493540000 -0.7131140000
Si 3.0125600000 3.7355400000 13.1967600000 0.0986910000 -0.1176110000 0.8030010000
Si 3.0147400000 9.0358400000 13.2101100000 0.7116040000 0.3237420000 0.6634860000
Si 1.5105300000 1.0682500000 13.1911600000 -0.2895390000 0.1979940000 0.6037370000
Si 1.4694300000 6.3733200000 13.2482400000 -0.0045810000 -0.1061570000 -0.2033660000
Si 1.5236200000 11.6832400000 13.2818500000 -0.4276840000 0.5506630000 -0.9314620000
Si 3.0625500000 1.9742900000 15.7399600000 -0.7485250000 0.0891350000 -1.1270110000
Si 2.9488700000 7.2774200000 15.7110000000 0.3423720000 -0.0527860000 -0.4856030000
Si 0.0716700000 12.6468800000 15.8248400000 -0.6216970000 0.1280130000 -1.1819420000
Si 1.5395000000 9.9745000000 15.7640600000 -0.4276100000 -0.2947850000 -0.7002100000
Si 1.4951500000 4.6445200000 15.7695900000 0.5282230000 -0.3151820000 -0.4018470000
Si 1.4626400000 15.2865000000 15.6880100000 0.3538180000 0.0646390000 1.0131470000
Si 3.0331900000 14.3811000000 18.2966300000 0.3522710000 0.5817020000 -2.0823800000
Si 0.0483200000 3.7819800000 18.2579800000 0.5561970000 -0.1547570000 0.7710040000
Si 3.0367100000 9.0989700000 18.1872900000 0.0928480000 -1.3050010000 -0.5490290000
Si 1.5761400000 11.7506600000 18.3815400000 -0.3142700000 -0.0267560000 -1.2234570000
Si 1.5366200000 6.4370000000 18.2833600000 -0.0705090000 -0.0716470000 -0.8095310000
Si 1.5762700000 1.0808500000 18.1704900000 0.5590610000 0.1432070000 0.3654080000
C 3.0246700000 1.8797500000 7.6526400000 -0.8477740000 0.7362830000 -0.8430700000
C 2.8334100000 12.5062600000 7.6257100000 1.8396930000 0.7875690000 -1.4350600000
C 2.8843900000 7.1776700000 7.6987600000 0.6978060000 1.5765180000 -0.9485800000
C 1.5243400000 15.1879800000 7.6062400000 -1.4982460000 0.5283460000 0.4368640000
C 1.3611700000 9.9032600000 7.5789400000 0.8750160000 0.8632460000 -2.0409710000
C 1.3408000000 4.6563100000 7.6900700000 2.1602300000 -2.1310450000 -3.1142520000
C 3.0515100000 14.2743700000 10.0195500000 -0.2171210000 0.8527770000 1.0809370000
C 2.9189700000 3.6854400000 10.0566100000 1.1052290000 0.5854550000 0.6298850000
C 2.9655500000 8.9711200000 10.0318600000 1.1740710000 0.8648580000 1.0832380000
C 1.4449500000 0.9857400000 10.1015600000 -0.1821180000 0.8340190000 -0.2089320000
C 1.4471500000 6.3291800000 10.2009300000 -0.7029490000 0.6034500000 -1.5087940000
C 1.4416600000 11.6444400000 10.0882800000 0.7092470000 0.1300700000 0.0710120000
C 3.0420600000 0.2518100000 12.5699100000 -0.3056910000 -2.2351440000 0.1942570000
C 3.0096300000 5.5194200000 12.6060800000 -0.1978920000 -0.5368070000 0.7569120000
C 3.0324800000 10.8163000000 12.6364600000 0.3460560000 -0.4052060000 -0.3659890000
C 1.4499500000 13.4439600000 12.5637100000 0.1578600000 0.4023360000 0.5882190000
C 1.5145600000 8.1435400000 12.6530900000 -0.7778890000 0.2252580000 -0.9368070000
C 1.4734500000 2.8256600000 12.6116600000 0.0122710000 0.8606390000 -0.7085430000
C 3.0392800000 9.0592300000 15.0785500000 0.1877650000 0.3794710000 0.9836810000
C 3.0583400000 3.7758300000 15.1048400000 -0.6122230000 -0.7520490000 0.1647760000
C 3.0104700000 14.4360900000 15.1183600000 0.0735500000 -1.3984650000 -0.3709590000
C 1.4578000000 1.0469100000 15.0978700000 1.0892450000 1.1710540000 -0.3622320000
C 1.3980600000 6.3652100000 15.0924400000 0.6540320000 0.8057250000 0.2005610000
C 1.5998300000 11.7730300000 15.1280800000 -0.3403280000 -0.4010780000 1.0013160000
C 1.4933300000 15.2785500000 17.5866700000 0.2538920000 -0.2886940000 0.6588140000
C 1.6089600000 4.6736100000 17.6422800000 -0.7285490000 -0.2902150000 0.4383970000
C 1.5128900000 9.9580400000 17.6719800000 -0.0953630000 0.7931650000 -0.2024810000
C 0.0343000000 12.6191800000 17.6722200000 -0.0914490000 -0.2255660000 1.1200150000
C 3.0703500000 7.2603700000 17.5400300000 -0.2752290000 1.2304610000 1.8668260000
C 0.0533300000 1.9891400000 17.5911700000 -0.4117790000 0.0222500000 1.2650100000
H 1.4312700000 15.2577200000 6.5236000000 0.2008560000 -0.0899490000 -0.5782780000
H 3.0020100000 1.7431700000 6.5453600000 0.0385860000 0.3261740000 0.1987300000
H 1.4255800000 4.5605100000 6.4987200000 -0.3016220000 0.4631600000 1.9421500000
H 2.7915200000 7.1463000000 6.5931800000 0.3166220000 -0.0577020000 -0.0315390000
H 1.5254600000 10.1780500000 6.4134900000 -0.6266180000 -1.0333770000 2.0479450000
H 2.8753800000 12.5719200000 6.4906100000 -0.0674770000 -0.2441780000 0.8235150000
106
lattice="3.0729994770 0.0000000000 0.0000000000 0.0000000000 15.9677772520 0.0000000000 0.0000000000 0.0000000000 36.0000000000" Properties=species:S:1:pos:R:3:force:R:3 energy=-727.7622673800 virial="-1.6423172861 -0.7036707070 -8.0224326174 -0.7036707070 -15.5266327407 -5.5257257725 -8.0224326174 -5.5257257725 -17.1235028353"
Ga 1.5417600000 1.3838300000 23.4599900000 0.1319690000 -0.1623960000 0.2126160000
Ga 2.9104700000 3.8538300000 21.6385600000 0.6427590000 -0.1392020000 0.7560150000
Ga 3.0045200000 2.0189500000 28.0335600000 0.7841810000 -0.4759410000 -0.3537970000
Ga 0.0977000000 3.8189900000 25.2677500000 -0.3853950000 -1.2388200000 0.2032330000
Ga 1.5336800000 6.3250100000 23.4319400000 0.0034970000 -0.3790210000 0.6250030000
Ga 1.4156500000 8.2182200000 20.6741000000 -0.1607560000 -0.6052700000 0.0712290000
Ga 1.4629100000 4.9005900000 28.5570900000 -0.1020900000 -0.0677500000 -0.2843610000
Ga 2.9272700000 7.2380400000 26.4664000000 0.3341830000 -0.3543950000 -0.2046570000
Ga 2.9768300000 9.3201900000 23.6211600000 0.3130680000 0.1436890000 0.2829330000
Ga 1.6403000000 11.7518900000 21.7559400000 -0.2019450000 0.8918550000 0.7258110000
Ga 1.5143300000 9.8107300000 28.0870700000 -0.2923510000 -0.0444470000 -0.2708810000
Ga 1.4354400000 11.6460700000 25.5635300000 0.0424020000 0.5074810000 -0.2519590000
Ga 0.0610500000 14.1706900000 23.6742200000 0.2849710000 -0.5987250000 -0.3301230000
Ga 0.3435100000 0.0967100000 20.6693400000 -1.0887670000 -1.7708670000 0.2583530000
Ga 0.5954100000 13.1568800000 28.6609800000 -0.1016260000 -0.3853970000 0.0864390000
Ga 1.8611000000 15.2844500000 26.4144500000 -0.8403070000 0.1861650000 0.3065890000
O 0.3030800000 0.2563200000 22.4794500000 -0.5057310000 -0.0060180000 0.0096620000
O 0.4222800000 3.6573900000 19.9601100000 -0.6140490000 0.4109360000 -1.0953240000
O 1.4560700000 2.9121200000 22.2558000000 -0.2375780000 0.3845860000 -0.0909900000
O 3.0532800000 2.0074600000 24.4713900000 0.1910320000 0.4758900000 0.5105470000
O 1.5936200000 1.0399100000 27.2875200000 -0.3108860000 -0.4397460000 -0.1611090000
O 1.4702900000 6.5655800000 19.8726000000 -0.0200470000 0.0429960000 0.4934810000
O 3.0576700000 5.5743800000 22.4758200000 -0.0618870000 0.1208230000 -0.1375510000
O 1.6151300000 4.6814700000 24.7538000000 0.2461590000 0.6836880000 -0.2832790000
O 0.2714400000 3.6661700000 27.1670900000 -0.2304640000 0.4341520000 -0.4470960000
O 2.9288500000 9.0131800000 19.8742800000 1.0102680000 0.1219790000 0.3606030000
O 1.5367900000 8.3365200000 22.5265100000 -0.1983840000 -0.4470160000 -0.1711600000
O 3.0577200000 7.2311100000 24.5412000000 -0.1774340000 0.4186880000 -0.0027940000
O 1.4073000000 6.5262100000 27.2485800000 -0.0908640000 -0.4885720000 -0.4042520000
O 1.6450000000 11.6419600000 19.9643600000 -0.0705740000 -0.1552360000 0.8502170000
O 0.0924500000 10.8833900000 22.4125400000 -0.2477730000 -0.2728740000 -0.3119430000
O 1.4401600000 9.9459300000 24.6689600000 0.1775300000 -0.1793010000 -0.0018960000
O 2.9984700000 8.8996700000 27.2688500000 0.2264900000 1.2486490000 0.4304580000
O 3.0297000000 14.3370800000 19.9397400000 0.6791840000 1.1220010000 1.0142600000
O 1.5653200000 13.4352200000 22.7438900000 0.1347050000 -0.7832200000 -0.9324420000
O 2.9760300000 12.6047100000 25.0956900000 0.2217260000 -0.0691580000 -0.5679750000
O 1.5414000000 11.6338800000 27.4621000000 -0.1948330000 -0.6463500000 -0.2625110000
O 1.8020200000 0.8504800000 19.8918300000 0.3653280000 1.2550500000 -0.2250080000
O 1.7450600000 15.2241200000 24.4755200000 -0.3761540000 0.6791450000 1.7308660000
O 0.2718500000 14.4154700000 27.1132100000 0.6586010000 0.8885000000 -0.4589200000
Si 2.9680500000 14.3336900000 8.1829100000 -0.8790140000 -0.5429920000 0.7358320000
Si 2.8833000000 9.0169600000 8.2240700000 0.4355500000 -0.8413800000 -0.2113450000
Si 2.9630800000 3.6657800000 8.1780000000 0.3547960000 0.7601170000 -0.6817970000
Si 1.4712500000 1.0238400000 8.0492200000 -1.2890700000 -0.8297320000 1.9553790000
Si 1.3721300000 11.6375500000 8.1126800000 0.1785460000 0.7841440000 0.3444230000
Si 1.4435600000 6.3483800000 8.2594400000 0.4640380000 0.3578430000 -1.2437140000
Si 2.9629100000 0.1914100000 10.7278000000 0.9247790000 -0.3532590000 -0.6634220000
Si 2.9576800000 5.4494500000 10.6973000000 0.4639330000 -0.3891000000 0.7329210000
Si 2.8994600000 10.8355100000 10.6331600000 -0.0236170000 -0.7852460000 0.7098340000
Si 1.3225500000 13.4690600000 10.7675000000 0.5604030000 0.4833380000 -1.9017360000
Si 1.4263500000 8.1515200000 10.7354500000 -0.0920750000 -0.0896890000 -0.7009500000
Si 1.4985900000 2.7917800000 10.6695900000 -0.8718060000 -0.1302840000 0.1042280000
Si 2.9260400000 14.3335100000 13.2275800000 -0.0719970000 1.0964470000 0.9783700000
Si 2.9830900000 3.6469700000 13.2089100000 0.5868130000 1.2878940000 0.2055740000
Si 2.9929600000 9.0526000000 13.2696500000 -0.2341500000 0.0979270000 -1.2664400000
Si 1.4790500000 1.0593600000 13.2081400000 -0.0273440000 -0.3096270000 1.4639390000
Si 1.4048100000 6.3660800000 13.2024100000 0.3982940000 -0.5966550000 0.5344430000
Si 1.3667700000 11.7067800000 13.1403600000 -0.0729320000 -0.5000330000 1.2296370000
Si 3.0679600000 2.0103400000 15.7586800000 0.4827250000 -0.6473670000 0.2912820000
Si 3.0615100000 7.3397000000 15.7511400000 -0.4023610000 -0.8823090000 -1.4046490000
Si 0.0139400000 12.6174700000 15.7557400000 0.1441210000 -0.4039110000 -0.0422190000
Si 1.5583700000 9.9937000000 15.7888500000 -0.1819080000 0.2594420000 -1.2642120000
Si 1.5647400000 4.6163500000 15.7320100000 0.4937810000 1.2753030000 -0.0389330000
Si 1.5113900000 15.2897400000 15.7706100000 0.5650120000 -0.8862860000 0.6510580000
Si 0.1052700000 14.3530100000 18.3161900000 -0.6181950000 0.0858980000 -0.4041380000
Si 0.0315200000 3.7552100000 18.3686600000 0.7965340000 0.6897410000 -0.9974230000
Si 0.0253500000 9.0467400000 18.1553500000 -0.2311450000 -0.6439280000 0.0771060000
Si 1.6788800000 11.7085200000 18.3836500000 -0.8060020000 0.5549960000 -1.4925650000
Si 1.4781400000 6.4187900000 18.2415900000 0.6315680000 -0.1702300000 -0.5881870000
Si 1.6463800000 1.0697500000 18.1728600000 -0.0577480000 -0.0965160000 0.4275400000
C 2.9529100000 1.9031200000 7.5301500000 1.1921770000 0.4812050000 -0.6395170000
C 2.9260100000 12.5693500000 7.5230500000 -0.0093730000 -0.3083210000 -0.2570710000
C 3.0095600000 7.2661500000 7.6522800000 -0.6428380000 -0.6671850000 0.3670490000
C 1.4058800000 15.1692600000 7.5747600000 0.3296670000 0.9290420000 0.1439210000
C 1.3444300000 9.8232800000 7.6266200000 0.2741530000 1.4536960000 -2.2855150000
C 1.4446000000 4.5988600000 7.5537300000 0.5506370000 -0.9421660000 -1.0401300000
C 2.8853100000 14.3910300000 10.0786800000 0.0455340000 -0.8376930000 0.5342070000
C 2.9906800000 3.6619500000 10.0332500000 0.7158550000 0.5746980000 0.5719550000
C 2.9486500000 9.0377600000 10.0544600000 -0.1382100000 -0.1756160000 1.0494970000
C 1.4918100000 1.0387900000 10.0309800000 -1.0804250000 0.1325320000 -0.4586870000
C 1.4425200000 6.3252100000 10.1231300000 -0.4215300000 0.6524970000 -0.3693170000
C 1.3554100000 11.6916800000 10.0460000000 0.1972260000 0.6546820000 -0.6881640000
C 3.0086000000 0.2015400000 12.6315900000 -0.1941920000 -1.1383850000 -0.5057030000
C 2.9476800000 5.4493900000 12.5997000000 0.0475430000 -0.2249550000 -0.2279440000
C 2.8697700000 10.8513000000 12.5230600000 1.0211740000 -0.9240640000 0.3065450000
C 1.3490900000 13.4694600000 12.6159100000 0.7665450000 0.3719140000 -0.1782800000
C 1.4431500000 8.1104500000 12.5868400000 -0.0305300000 1.2775320000 0.8312810000
C 1.4622300000 2.7845400000 12.5830900000 -0.1604430000 0.4307610000 -0.3166490000
C 0.0130600000 9.1296700000 15.1284600000 -0.1285740000 -0.5414570000 0.3142070000
C 0.0627300000 3.7590600000 15.1058300000 -1.1983820000 -0.7137980000 -0.4181420000
C 3.0662700000 14.3909200000 15.1529900000 -0.6544240000 0.0721210000 -0.8059620000
C 1.5365400000 1.0624300000 15.1905200000 -0.2796490000 1.1318990000 -1.3421640000
C 1.4924800000 6.4335000000 15.0885500000 0.4168230000 -0.2597170000 0.1459810000
C 1.5471300000 11.7217300000 15.0377900000 -0.4184770000 0.3616700000 1.0699260000
C 1.6145000000 15.2661000000 17.6953000000 -0.0592730000 -0.3167320000 -1.3318740000
C 1.5848800000 4.6605800000 17.5941500000 -0.3719980000 -0.7566970000 1.9645040000
C 1.5804900000 9.9135900000 17.6551500000 -0.3324800000 1.0788130000 0.3338800000
C 0.1041900000 12.6007500000 17.6826100000 0.1832580000 -0.7288610000 -0.1311870000
C 3.0414700000 7.2753800000 17.5702800000 -0.1057540000 0.5480510000 0.9933120000
C 0.0845900000 2.0022900000 17.6831300000 -0.0475580000 -0.2239190000 -0.0543280000
H 1.2129600000 15.1255300000 6.5052700000 0.4001180000 -0.0731250000 -0.7409300000
H 2.9839800000 2.0030500000 6.4286300000 -0.0307060000 -0.0587380000 -0.0539510000
H 1.7199100000 4.5183200000 6.3960200000 -1.0306690000 0.4297060000 1.8881770000
H 0.0118100000 7.3067500000 6.5576900000 -0.1965940000 -0.2009070000 -0.2375930000
H 1.3572700000 9.8447300000 6.4487400000 -0.0142250000 -0.1679460000 1.7013340000
H 2.9714500000 12.6891700000 6.4012700000 -0.1540910000 -0.2616330000 0.6492140000
106
lattice="3.0729994770 0.0000000000 0.0000000000 0.0000000000 15.9677772520 0.0000000000 0.0000000000 0.0000000000 36.0000000000" Properties=species:S:1:pos:R:3:force:R:3 energy=-727.4227448700 virial="-3.3626952504 0.9114355969 -8.7638326522 0.9114355969 -20.2340554797 -4.6587560958 -8.7638326522 -4.6587560958 -31.4034249559"
Ga 1.4793800000 1.3280500000 23.4424600000 0.0774540000 -0.6162250000 -0.2072410000
Ga 2.9261000000 3.9308400000 21.7156600000 -0.1627600000 -0.0029510000 -0.2803800000
Ga 0.0552600000 2.0184300000 28.1375600000 0.6981740000 0.2159680000 -0.6353430000
Ga 0.0628600000 3.7449100000 25.1628500000 -0.8041860000 -0.1139310000 -0.1318430000
Ga 1.3630000000 6.3931200000 23.5488200000 0.1209360000 -0.5918660000 -0.4540470000
Ga 1.6829500000 8.0114800000 20.7066800000 -0.1604660000 1.5281010000 0.4132470000
Ga 1.5647900000 4.8178500000 28.4385700000 -0.2478250000 -0.2600800000 -0.4591110000
Ga 2.8466200000 7.3071000000 26.6175100000 0.5861090000 0.7858460000 -1.0147150000
Ga 3.0313700000 9.2330400000 23.6353100000 -0.1408850000 0.7471350000 0.2647140000
Ga 1.6576400000 11.7768200000 21.7523100000 -0.9732270000 -0.3088230000 0.8996910000
Ga 1.4791400000 9.9446900000 28.1744500000 0.2197450000 0.3057250000 -0.4785810000
Ga 1.3774400000 11.6839300000 25.4415300000 0.6520230000 0.1963350000 0.3635520000
Ga 3.0134700000 14.0297500000 23.6663800000 0.3965830000 2.2566700000 -0.3076080000
Ga 0.3108000000 0.0053400000 20.6997900000 -0.4735830000 0.2429150000 0.0652260000
Ga 0.6581600000 13.2567900000 28.6408200000 -0.0142430000 -0.7806480000 0.1467090000
Ga 1.9607500000 15.3300800000 26.4733600000 -0.9934320000 0.7006960000 -0.4718970000
O 0.0422200000 0.2501400000 22.5016000000 0.1994440000 0.1496310000 -0.2361020000
O 0.0086200000 3.8547700000 19.9240200000 0.1693450000 -0.2814820000 -0.1313410000
O 1.3845900000 3.0145400000 22.3242600000 0.3558350000 -0.2099170000 0.1810190000
O 3.0108100000 1.9227700000 24.4780800000 -0.0105050000 1.1262520000 0.6715670000
O 1.6795400000 0.9732400000 27.5828100000 -0.1275400000 -0.2647250000 -0.4441520000
O 1.5856900000 6.4591900000 19.9254100000 -0.0182030000 -0.9907850000 -1.0811490000
O 2.8803000000 5.6769900000 22.4692000000 0.3819100000 0.3962380000 0.7380340000
O 1.5266500000 4.8016000000 24.7526800000 0.6454430000 -0.3997740000 0.0994030000
O 0.2561600000 3.6318000000 27.0193700000 -0.2116230000 -0.0720670000 0.7143040000
O 0.1184000000 8.9709900000 19.9364700000 -0.4092040000 -0.3230730000 -0.1935500000