69
lattice="3.0729999540 0.0000000000 0.0000000000 1.5365000130 7.9838884020 0.0000000000 0.0000000000 0.0000000000 43.8005676270" Properties=species:S:1:pos:R:3:force:R:3 energy=-462.9547624500 virial="13.2531805078 -0.0130724864 0.0142328457 -0.0130724864 3.0138218350 1.6729563119 0.0142328457 1.6729563119 244.7555259835"
Ga 1.5294800000 4.7727500000 25.9060000000 -0.0015140000 -0.0740650000 0.0709960000
Ga 3.0658100000 7.7597900000 25.9155900000 0.0051810000 0.0176560000 0.3135190000
Ga 3.0654400000 2.3150400000 24.2856700000 -0.0262180000 0.3503310000 4.4528750000
Ga 1.5359500000 6.5635900000 23.3280300000 0.0114980000 -0.2306530000 -2.8722710000
Ga 3.0680900000 0.3769300000 30.0587100000 -0.0002030000 -0.0554290000 -0.1266510000
Ga 1.5311900000 3.2692700000 30.0924300000 -0.0004750000 0.0464400000 0.0558740000
Ga 3.0683700000 5.8747000000 28.5270700000 0.0021250000 0.1059930000 2.7185330000
Ga 3.0667600000 2.2141400000 27.4446400000 0.0005400000 -0.0323810000 -2.7344230000
Ga 3.0684600000 3.9932500000 34.0789300000 -0.0005700000 -0.3087030000 1.0535260000
Ga 1.5310600000 6.8084000000 34.4584500000 0.0029860000 0.0525560000 1.2090700000
Ga 1.5327100000 1.3308700000 32.7429100000 -0.0015420000 0.0158160000 2.9602300000
Ga 3.0680600000 5.7861700000 31.5803400000 -0.0045230000 0.2748540000 -3.0882870000
O 3.0726500000 7.4389000000 22.6475100000 -0.0038910000 -0.0175690000 4.0668540000
O 1.5293800000 1.3763700000 24.8162300000 0.0038230000 -0.0283600000 -0.0717710000
O 3.0759500000 2.1934300000 22.6584100000 0.0337710000 -0.3501500000 2.9272850000
O 1.5305000000 6.7315400000 24.9892900000 -0.0077530000 0.2628120000 3.0309190000
O 1.5383900000 4.9296900000 22.6313000000 0.0010250000 -0.0491780000 6.1971670000
O 3.0657600000 4.0545300000 25.0047000000 0.0064730000 -0.0736530000 -0.6736910000
O 1.5302600000 3.1486800000 27.0081400000 -0.0027630000 -0.0605590000 0.0245480000
O 1.5319700000 4.9456700000 29.0058800000 -0.0031030000 -0.0311180000 0.0189880000
O 3.0668100000 5.8310800000 26.7971800000 -0.0016440000 0.1296100000 -2.3389050000
O 3.0674200000 2.2540000000 29.1800600000 0.0052400000 -0.1180490000 2.1300910000
O 3.0657300000 0.4617800000 26.8348200000 0.0000770000 0.0286680000 0.6149720000
O 3.0679900000 7.6259800000 29.1541500000 -0.0016460000 -0.0423420000 -0.6595770000
O 1.5316400000 6.7378400000 31.1528600000 0.0024130000 -0.0309350000 0.0990220000
O 3.0691000000 0.5016000000 33.3167400000 -0.0023530000 -0.0959210000 0.3767930000
O 1.5316700000 1.3669200000 31.0119400000 -0.0014220000 0.2326550000 -2.1751410000
O 3.0691100000 5.7273400000 33.2878100000 -0.0004820000 0.0047780000 2.7968770000
O 3.0678000000 4.0113300000 30.9911700000 0.0027300000 -0.0164340000 0.6976630000
O 1.5319000000 3.0568600000 33.4442100000 -0.0025510000 0.1157160000 -0.0127460000
Si 1.5358800000 4.8641000000 11.9936700000 0.0019500000 -0.0016650000 -2.5985250000
Si 3.0727400000 2.2021300000 11.9937900000 -0.0002410000 -0.0017380000 -2.6072740000
Si 3.0725500000 7.5250600000 11.9943700000 -0.0000030000 0.0008910000 -2.5941050000
Si 1.5365200000 3.0884000000 9.7010100000 0.0023160000 -0.0003600000 -2.7667650000
Si 3.0731600000 0.4269900000 9.7008400000 -0.0018070000 0.0011400000 -2.7644100000
Si 3.0724700000 5.7497300000 9.7005200000 0.0058360000 0.0012350000 -2.7643670000
Si 1.5367100000 4.8621300000 16.5646700000 0.0000640000 -0.0116710000 -2.8111370000
Si 3.0735700000 2.2059000000 16.5743700000 -0.0035600000 0.0059290000 -2.6410010000
Si 3.0737100000 7.5300600000 16.5693500000 -0.0016430000 0.0043590000 -2.6984640000
Si 1.5366100000 4.8608900000 21.1326500000 -0.0025710000 -0.6278120000 -5.1530090000
Si 3.0728800000 2.2314200000 21.2000200000 -0.0079130000 0.1271160000 -6.5828400000
Si 3.0725700000 7.5222300000 21.0750100000 0.0042690000 0.4725790000 -3.6121670000
Si 3.0726600000 3.9764800000 14.2805800000 0.0041460000 0.0011360000 -2.3590690000
Si 1.5366000000 1.3174200000 14.2833200000 0.0002020000 -0.0017580000 -2.3180490000
Si 1.5365700000 6.6396300000 14.2829000000 -0.0002860000 -0.0088030000 -2.3218110000
Si 1.5373500000 3.0934700000 18.8746400000 -0.0003540000 -0.0427290000 -2.3223440000
Si 3.0734900000 0.4378500000 18.8601500000 -0.0005130000 0.0531310000 -2.0495500000
Si 3.0743800000 5.7482300000 18.8411600000 -0.0076720000 -0.0284180000 -2.5630720000
C 1.5361500000 4.8623200000 9.1527500000 0.0004330000 0.0008490000 2.3665010000
C 3.0731600000 2.2013400000 9.1532100000 -0.0024560000 -0.0063780000 2.3603070000
C 3.0730800000 7.5239700000 9.1526200000 0.0006320000 -0.0058070000 2.3611600000
C 1.5362800000 3.0893600000 11.4222000000 -0.0045550000 0.0162550000 2.5426410000
C 3.0725800000 0.4277900000 11.4221500000 -0.0033460000 0.0113070000 2.5376250000
C 3.0724800000 5.7508700000 11.4218400000 -0.0055800000 0.0161040000 2.5398870000
C 1.5377100000 4.8611700000 18.2728900000 0.0027900000 0.0042450000 2.5801190000
C 3.0738100000 2.2079900000 18.2911000000 0.0011930000 -0.0145490000 2.4104880000
C 3.0735000000 7.5321900000 18.2855300000 0.0031660000 0.0051730000 2.5028050000
C 1.5362200000 4.8648600000 13.7072800000 0.0020810000 0.0077760000 2.4879460000
C 3.0730300000 2.2026400000 13.7069800000 0.0020100000 -0.0039010000 2.4891080000
C 3.0730000000 7.5264500000 13.7084700000 0.0038690000 0.0006040000 2.4850300000
C 3.0731200000 3.9766400000 15.9977700000 0.0015630000 -0.0041070000 2.5672910000
C 1.5369500000 1.3194500000 16.0030700000 0.0015700000 -0.0017740000 2.5289580000
C 1.5372700000 6.6403900000 16.0029600000 -0.0049320000 0.0073960000 2.5504170000
C 1.5364400000 3.0923800000 20.5937400000 0.0025450000 0.0501010000 2.5773170000
C 3.0726300000 0.4441600000 20.5993600000 -0.0024560000 -0.1081570000 2.4113030000
C 3.0732100000 5.7515500000 20.5478800000 -0.0054480000 0.0599960000 2.7345350000
H 1.5360100000 4.8621200000 8.1475100000 -0.0001690000 -0.0008420000 -4.1923040000
H 3.0731900000 2.2012500000 8.1478900000 -0.0000010000 -0.0002070000 -4.1883120000
H 3.0728500000 7.5242400000 8.1472900000 -0.0003550000 0.0009680000 -4.1872030000
69
lattice="3.0729999540 0.0000000000 0.0000000000 1.5365000130 7.9838884020 0.0000000000 0.0000000000 0.0000000000 43.8005676270" Properties=species:S:1:pos:R:3:force:R:3 energy=-470.7125308700 virial="7.9567509600 -0.0178883126 -0.0100206746 -0.0178883126 -3.2538753439 0.8979369518 -0.0100206746 0.8979369518 130.3415297654"
Ga 1.5294800000 4.7727500000 26.1272900000 0.0007430000 -0.0437630000 0.0414940000
Ga 3.0658100000 7.7597900000 26.1372900000 0.0019440000 0.0200920000 0.1479490000
Ga 3.0654400000 2.3150400000 24.4393000000 -0.0140320000 0.1556820000 2.0186590000
Ga 1.5359500000 6.5635900000 23.4416700000 0.0057630000 -0.0898360000 -1.2543930000
Ga 3.0680900000 0.3769300000 30.4534100000 0.0008880000 -0.0395730000 -0.0482030000
Ga 1.5311900000 3.2692700000 30.4885400000 0.0005020000 0.0357660000 0.0364530000
Ga 3.0683700000 5.8747000000 28.8578100000 0.0031450000 0.0474350000 1.2208520000
Ga 3.0667600000 2.2141400000 27.7301900000 0.0033790000 -0.0094790000 -1.2049030000
Ga 3.0684600000 3.9932500000 34.6415100000 -0.0003680000 -0.1746280000 0.6195550000
Ga 1.5310600000 6.8084000000 35.0368800000 0.0023260000 0.0369660000 0.6735190000
Ga 1.5327100000 1.3308700000 33.2496900000 -0.0023850000 0.0128190000 1.3137940000
Ga 3.0680600000 5.7861700000 32.0385800000 -0.0051540000 0.1356210000 -1.3940080000
O 3.0726500000 7.4389000000 22.7327300000 -0.0034620000 0.0160950000 1.9066640000
O 1.5293800000 1.3763700000 24.9920100000 0.0034650000 -0.0357570000 -0.0039220000
O 3.0759500000 2.1934300000 22.7440800000 0.0138960000 -0.1463110000 1.5663100000
O 1.5305000000 6.7315400000 25.1723000000 -0.0000320000 0.1010400000 1.3445540000
O 1.5383900000 4.9296900000 22.7158400000 -0.0046890000 -0.0688160000 3.0234570000
O 3.0657600000 4.0545300000 25.1883500000 0.0061060000 -0.0291550000 -0.3695970000
O 1.5302600000 3.1486800000 27.2754500000 -0.0040340000 -0.0039440000 0.0006190000
O 1.5319700000 4.9456700000 29.3566200000 -0.0042850000 -0.0300910000 0.0269460000
O 3.0668100000 5.8310800000 27.0556900000 -0.0001210000 0.0755160000 -0.9880630000
O 3.0674200000 2.2540000000 29.5380800000 0.0049820000 -0.0782890000 0.8780490000
O 3.0657300000 0.4617800000 27.0949000000 -0.0000740000 0.0029590000 0.3536220000
O 3.0679900000 7.6259800000 29.5110800000 -0.0004850000 -0.0190650000 -0.3695060000
O 1.5316400000 6.7378400000 31.5932600000 -0.0014390000 0.0024050000 0.0268120000
O 3.0691000000 0.5016000000 33.8474900000 -0.0029380000 -0.0776390000 0.2133700000
O 1.5316700000 1.3669200000 31.4464500000 0.0002940000 0.1221960000 -0.9077280000
O 3.0691100000 5.7273400000 33.8173500000 -0.0026400000 0.0251480000 1.2206230000
O 3.0678000000 4.0113300000 31.4248100000 0.0016550000 -0.0117960000 0.3805920000
O 1.5319000000 3.0568600000 33.9802800000 0.0037760000 0.0701230000 -0.0248450000
Si 1.5358800000 4.8641000000 11.6340100000 0.0017120000 -0.0031400000 -1.1373240000
Si 3.0727400000 2.2021300000 11.6341300000 -0.0005410000 -0.0030580000 -1.1437050000
Si 3.0725500000 7.5250600000 11.6347300000 0.0002970000 -0.0001000000 -1.1365860000
Si 1.5365200000 3.0884000000 9.2456100000 0.0022430000 0.0005570000 -1.2454300000
Si 3.0731600000 0.4269900000 9.2454400000 -0.0018020000 0.0020280000 -1.2441940000
Si 3.0724700000 5.7497300000 9.2450900000 0.0064750000 0.0025950000 -1.2441970000
Si 1.5367100000 4.8621300000 16.3958800000 0.0016420000 -0.0088050000 -1.2246780000
Si 3.0735700000 2.2059000000 16.4059900000 -0.0027920000 0.0043480000 -1.1368230000
Si 3.0737100000 7.5300600000 16.4007500000 -0.0009170000 0.0022890000 -1.1668990000
Si 1.5366100000 4.8608900000 21.1546200000 0.0007110000 -0.3137900000 -2.4265280000
Si 3.0728800000 2.2314200000 21.2247900000 -0.0026710000 0.0560510000 -3.1507120000
Si 3.0725700000 7.5222300000 21.0945700000 0.0024490000 0.2330170000 -1.6365670000
Si 3.0726600000 3.9764800000 14.0164200000 0.0043280000 0.0020130000 -1.0313630000
Si 1.5366000000 1.3174200000 14.0192700000 0.0002670000 -0.0013590000 -1.0094100000
Si 1.5365700000 6.6396300000 14.0188300000 0.0003570000 -0.0069920000 -1.0110380000
Si 1.5373500000 3.0934700000 18.8023100000 -0.0002660000 -0.0223350000 -0.9938200000
Si 3.0734900000 0.4378500000 18.7872200000 0.0000090000 0.0254120000 -0.8625570000
Si 3.0743800000 5.7482300000 18.7674300000 -0.0064420000 -0.0146320000 -1.1210660000
C 1.5361500000 4.8623200000 8.6744500000 -0.0030370000 0.0058660000 1.1195330000
C 3.0731600000 2.2013400000 8.6749300000 -0.0034960000 -0.0018280000 1.1140350000
C 3.0730800000 7.5239700000 8.6743200000 0.0000010000 -0.0013610000 1.1153100000
C 1.5362800000 3.0893600000 11.0386800000 -0.0046390000 0.0101610000 1.1288870000
C 3.0725800000 0.4277900000 11.0386200000 -0.0032540000 0.0071170000 1.1256130000
C 3.0724800000 5.7508700000 11.0383000000 -0.0059330000 0.0098550000 1.1271620000
C 1.5377100000 4.8611700000 18.1754400000 -0.0022410000 0.0061610000 1.1232820000
C 3.0738100000 2.2079900000 18.1944100000 0.0036900000 -0.0102270000 1.0211730000
C 3.0735000000 7.5321900000 18.1886100000 0.0041080000 -0.0002240000 1.0701690000
C 1.5362200000 4.8648600000 13.4191800000 0.0007280000 0.0065430000 1.0792790000
C 3.0730300000 2.2026400000 13.4188600000 0.0017750000 -0.0038710000 1.0783120000
C 3.0730000000 7.5264500000 13.4204100000 0.0032730000 -0.0000920000 1.0793080000
C 3.0731200000 3.9766400000 15.8053200000 0.0021280000 -0.0019820000 1.1279520000
C 1.5369500000 1.3194500000 15.8108400000 0.0030860000 0.0028820000 1.1123750000
C 1.5372700000 6.6403900000 15.8107100000 -0.0052690000 0.0074510000 1.1228210000
C 1.5364400000 3.0923800000 20.5932000000 0.0013070000 0.0348630000 1.1221250000
C 3.0726300000 0.4441600000 20.5990500000 -0.0012060000 -0.0617400000 1.0502000000
C 3.0732100000 5.7515500000 20.5454200000 -0.0032240000 0.0345620000 1.2039990000
H 1.5360100000 4.8621200000 7.6272400000 0.0002060000 -0.0004850000 -2.1515140000
H 3.0731900000 2.2012500000 7.6276400000 0.0000370000 0.0000260000 -2.1484350000
H 3.0728500000 7.5242400000 7.6270100000 0.0001740000 0.0005030000 -2.1474120000
69
lattice="3.0729999540 0.0000000000 0.0000000000 1.5365000130 7.9838884020 0.0000000000 0.0000000000 0.0000000000 43.8005676270" Properties=species:S:1:pos:R:3:force:R:3 energy=-473.8678644800 virial="-1.0733054637 -0.0256620488 -0.0051981411 -0.0256620488 -13.4526147362 0.0182437984 -0.0051981411 0.0182437984 31.4343664452"
Ga 1.5294800000 4.7727500000 26.3485800000 0.0015300000 -0.0104500000 0.0188290000
Ga 3.0658100000 7.7597900000 26.3589800000 0.0030090000 0.0066280000 0.0388270000
Ga 3.0654400000 2.3150400000 24.5929300000 -0.0024790000 0.0326870000 0.4309580000
Ga 1.5359500000 6.5635900000 23.5553100000 0.0013140000 -0.0156210000 -0.2423000000
Ga 3.0680900000 0.3769300000 30.8481100000 0.0005390000 -0.0124190000 -0.0060780000
Ga 1.5311900000 3.2692700000 30.8846500000 0.0001020000 0.0114700000 0.0099160000
Ga 3.0683700000 5.8747000000 29.1885500000 -0.0001870000 0.0131200000 0.2473620000
Ga 3.0667600000 2.2141400000 28.0157300000 0.0011590000 -0.0014740000 -0.2384910000
Ga 3.0684600000 3.9932500000 35.2040900000 -0.0008990000 -0.0436960000 0.1738440000
Ga 1.5310600000 6.8084000000 35.6153100000 0.0018060000 0.0090810000 0.1786550000
Ga 1.5327100000 1.3308700000 33.7564800000 -0.0028620000 0.0071420000 0.2697320000
Ga 3.0680600000 5.7861700000 32.4968200000 -0.0021160000 0.0288440000 -0.2887510000
O 3.0726500000 7.4389000000 22.8179500000 -0.0019240000 0.0117600000 0.4108440000
O 1.5293800000 1.3763700000 25.1678000000 0.0049650000 -0.0129250000 0.0005080000
O 3.0759500000 2.1934300000 22.8297600000 0.0019280000 -0.0265850000 0.3791420000
O 1.5305000000 6.7315400000 25.3553100000 0.0026450000 0.0163790000 0.2713020000
O 1.5383900000 4.9296900000 22.8003900000 -0.0034880000 -0.0264210000 0.6818110000
O 3.0657600000 4.0545300000 25.3720100000 0.0036040000 -0.0051290000 -0.0971350000
O 1.5302600000 3.1486800000 27.5427700000 -0.0053830000 0.0087710000 -0.0044050000
O 1.5319700000 4.9456700000 29.7073500000 -0.0053060000 -0.0115910000 0.0143670000
O 3.0668100000 5.8310800000 27.3141900000 -0.0004330000 0.0181980000 -0.1915330000
O 3.0674200000 2.2540000000 29.8960900000 0.0038050000 -0.0230770000 0.1559910000
O 3.0657300000 0.4617800000 27.3549700000 -0.0004180000 -0.0017990000 0.0968890000
O 3.0679900000 7.6259800000 29.8680100000 0.0001960000 -0.0034570000 -0.1046040000
O 1.5316400000 6.7378400000 32.0336500000 -0.0006990000 0.0094180000 0.0060400000
O 3.0691000000 0.5016000000 34.3782400000 -0.0018730000 -0.0280760000 0.0592820000
O 1.5316700000 1.3669200000 31.8809600000 -0.0015040000 0.0328950000 -0.1672310000
O 3.0691100000 5.7273400000 34.3468900000 -0.0054360000 0.0104400000 0.2426890000
O 3.0678000000 4.0113300000 31.8584500000 0.0016830000 -0.0093620000 0.1014270000
O 1.5319000000 3.0568600000 34.5163600000 0.0056730000 0.0212030000 -0.0174370000
Si 1.5358800000 4.8641000000 11.2743500000 0.0040200000 -0.0052820000 -0.2255330000
Si 3.0727400000 2.2021300000 11.2744700000 0.0014340000 -0.0049380000 -0.2296330000
Si 3.0725500000 7.5250600000 11.2751000000 0.0019340000 -0.0019350000 -0.2275200000
Si 1.5365200000 3.0884000000 8.7902000000 0.0016520000 0.0012370000 -0.2555810000
Si 3.0731600000 0.4269900000 8.7900300000 -0.0025190000 0.0028440000 -0.2551120000
Si 3.0724700000 5.7497300000 8.7896700000 0.0056880000 0.0028970000 -0.2549640000
Si 1.5367100000 4.8621300000 16.2270900000 0.0016410000 -0.0066160000 -0.2433630000
Si 3.0735700000 2.2059000000 16.2376100000 -0.0027160000 0.0002600000 -0.2214310000
Si 3.0737100000 7.5300600000 16.2321600000 -0.0017850000 -0.0008220000 -0.2293760000
Si 1.5366100000 4.8608900000 21.1765800000 0.0035300000 -0.0755850000 -0.5193130000
Si 3.0728800000 2.2314200000 21.2495700000 -0.0008390000 0.0124530000 -0.6981190000
Si 3.0725700000 7.5222300000 21.1141300000 0.0015350000 0.0577480000 -0.3344130000
Si 3.0726600000 3.9764800000 13.7522500000 0.0049830000 0.0029860000 -0.2026520000
Si 1.5366000000 1.3174200000 13.7552200000 0.0007850000 0.0002830000 -0.1977110000
Si 1.5365700000 6.6396300000 13.7547600000 0.0010550000 -0.0053530000 -0.1986860000
Si 1.5373500000 3.0934700000 18.7299900000 -0.0025700000 -0.0047170000 -0.1898430000
Si 3.0734900000 0.4378500000 18.7142900000 -0.0020200000 0.0054340000 -0.1656400000
Si 3.0743800000 5.7482300000 18.6937100000 -0.0066890000 -0.0008280000 -0.2245880000
C 1.5361500000 4.8623200000 8.1961600000 0.0003940000 0.0006040000 0.2575060000
C 3.0731600000 2.2013400000 8.1966600000 0.0000720000 -0.0077650000 0.2509360000
C 3.0730800000 7.5239700000 8.1960200000 0.0017480000 -0.0049060000 0.2537860000
C 1.5362800000 3.0893600000 10.6551500000 -0.0030930000 0.0076440000 0.2197670000
C 3.0725800000 0.4277900000 10.6550900000 -0.0015630000 0.0056950000 0.2177160000
C 3.0724800000 5.7508700000 10.6547500000 -0.0037090000 0.0067640000 0.2196600000
C 1.5377100000 4.8611700000 18.0779900000 0.0004920000 0.0044670000 0.2169240000
C 3.0738100000 2.2079900000 18.0977200000 0.0038650000 -0.0048500000 0.1986080000
C 3.0735000000 7.5321900000 18.0916800000 0.0058350000 -0.0021980000 0.2088890000
C 1.5362200000 4.8648600000 13.1310700000 -0.0021540000 0.0020110000 0.2082420000
C 3.0730300000 2.2026400000 13.1307400000 -0.0013760000 -0.0041300000 0.2070200000
C 3.0730000000 7.5264500000 13.1323600000 -0.0007300000 -0.0027630000 0.2107800000
C 3.0731200000 3.9766400000 15.6128600000 0.0010680000 -0.0011560000 0.2239840000
C 1.5369500000 1.3194500000 15.6186000000 0.0008850000 -0.0041830000 0.2215640000
C 1.5372700000 6.6403900000 15.6184700000 -0.0059020000 -0.0011860000 0.2240490000
C 1.5364400000 3.0923800000 20.5926600000 0.0011200000 0.0153030000 0.2198100000
C 3.0726300000 0.4441600000 20.5987500000 -0.0007070000 -0.0165590000 0.2065950000
C 3.0732100000 5.7515500000 20.5429700000 -0.0051810000 0.0186770000 0.2433040000
H 1.5360100000 4.8621200000 7.1069700000 0.0004050000 0.0005990000 -0.5239820000
H 3.0731900000 2.2012500000 7.1073800000 0.0000020000 0.0009930000 -0.5215290000
H 3.0728500000 7.5242400000 7.1067300000 0.0004600000 0.0009190000 -0.5206030000
69
lattice="3.0729999540 0.0000000000 0.0000000000 1.5365000130 7.9838884020 0.0000000000 0.0000000000 0.0000000000 43.8005676270" Properties=species:S:1:pos:R:3:force:R:3 energy=-473.8954112900 virial="-6.6393139618 -0.0071902029 0.0364943040 -0.0071902029 -19.7565245134 -0.5784424326 0.0364943040 -0.5784424326 -29.6851483731"
Ga 1.5294800000 4.7727500000 26.5116400000 0.0006300000 0.0156800000 -0.0171760000
Ga 3.0658100000 7.7597900000 26.5223300000 0.0012280000 -0.0087640000 -0.0333460000
Ga 3.0654400000 2.3150400000 24.7061300000 0.0019070000 -0.0304880000 -0.3562080000
Ga 1.5359500000 6.5635900000 23.6390400000 -0.0039290000 0.0140450000 0.1775110000
Ga 3.0680900000 0.3769300000 31.1389400000 -0.0016500000 0.0114170000 0.0023030000
Ga 1.5311900000 3.2692700000 31.1765200000 0.0017990000 -0.0143660000 -0.0083180000
Ga 3.0683700000 5.8747000000 29.4322600000 -0.0001120000 -0.0087610000 -0.2058780000
Ga 3.0667600000 2.2141400000 28.2261300000 0.0006060000 -0.0035500000 0.1952060000
Ga 3.0684600000 3.9932500000 35.6186200000 0.0004430000 0.0377190000 -0.1608350000
Ga 1.5310600000 6.8084000000 36.0415200000 0.0015160000 -0.0125120000 -0.1639780000
Ga 1.5327100000 1.3308700000 34.1299100000 -0.0016110000 -0.0077770000 -0.2265830000
Ga 3.0680600000 5.7861700000 32.8344800000 -0.0020370000 -0.0319790000 0.2344500000
O 3.0726500000 7.4389000000 22.8807500000 -0.0019550000 -0.0056370000 -0.3402120000
O 1.5293800000 1.3763700000 25.2973200000 0.0039690000 0.0137430000 -0.0087540000
O 3.0759500000 2.1934300000 22.8928900000 -0.0042860000 0.0170160000 -0.3192910000
O 1.5305000000 6.7315400000 25.4901600000 0.0037980000 -0.0094430000 -0.2045770000
O 1.5383900000 4.9296900000 22.8626800000 -0.0050160000 0.0114290000 -0.5739650000
O 3.0657600000 4.0545300000 25.5073300000 0.0035860000 0.0091680000 0.0907670000
O 1.5302600000 3.1486800000 27.7397400000 -0.0025840000 0.0012170000 0.0114090000
O 1.5319700000 4.9456700000 29.9657900000 -0.0044760000 0.0099250000 -0.0086150000
O 3.0668100000 5.8310800000 27.5046700000 0.0025000000 -0.0311600000 0.1393880000
O 3.0674200000 2.2540000000 30.1598800000 0.0035790000 0.0180280000 -0.1152810000
O 3.0657300000 0.4617800000 27.5466100000 0.0020560000 -0.0004000000 -0.0861890000
O 3.0679900000 7.6259800000 30.1310100000 0.0011650000 0.0038040000 0.0837630000
O 1.5316400000 6.7378400000 32.3581500000 -0.0018410000 -0.0022030000 -0.0023290000
O 3.0691000000 0.5016000000 34.7693200000 -0.0020260000 0.0164280000 -0.0496230000
O 1.5316700000 1.3669200000 32.2011200000 0.0011920000 -0.0198490000 0.1278550000
O 3.0691100000 5.7273400000 34.7370800000 -0.0054150000 -0.0152650000 -0.1856680000
O 3.0678000000 4.0113300000 32.1779700000 0.0005970000 -0.0020610000 -0.0855840000
O 1.5319000000 3.0568600000 34.9113600000 0.0043530000 -0.0081650000 0.0092510000
Si 1.5358800000 4.8641000000 11.0093300000 0.0038240000 -0.0052720000 0.1751340000
Si 3.0727400000 2.2021300000 11.0094600000 0.0010250000 -0.0046180000 0.1724480000
Si 3.0725500000 7.5250600000 11.0101100000 0.0020220000 -0.0022880000 0.1709990000
Si 1.5365200000 3.0884000000 8.4546500000 0.0015790000 0.0015040000 0.2055280000
Si 3.0731600000 0.4269900000 8.4544600000 -0.0028780000 0.0027580000 0.2053230000
Si 3.0724700000 5.7497300000 8.4541000000 0.0048950000 0.0028830000 0.2052490000
Si 1.5367100000 4.8621300000 16.1027300000 0.0021400000 -0.0034750000 0.1918710000
Si 3.0735700000 2.2059000000 16.1135400000 -0.0023000000 -0.0016440000 0.1750640000
Si 3.0737100000 7.5300600000 16.1079400000 -0.0013420000 -0.0005710000 0.1818870000
Si 1.5366100000 4.8608900000 21.1927700000 0.0043600000 0.0657030000 0.4263490000
Si 3.0728800000 2.2314200000 21.2678300000 0.0016320000 -0.0098150000 0.5630690000
Si 3.0725700000 7.5222300000 21.1285400000 0.0017620000 -0.0468880000 0.2741470000
Si 3.0726600000 3.9764800000 13.5576000000 0.0038640000 0.0035030000 0.1559730000
Si 1.5366000000 1.3174200000 13.5606600000 -0.0006040000 0.0009150000 0.1527510000
Si 1.5365700000 6.6396300000 13.5601900000 -0.0005100000 -0.0045850000 0.1520980000
Si 1.5373500000 3.0934700000 18.6766900000 -0.0014090000 0.0073020000 0.1511630000
Si 3.0734900000 0.4378500000 18.6605500000 -0.0003590000 -0.0109960000 0.1212080000
Si 3.0743800000 5.7482300000 18.6393900000 -0.0070680000 0.0047680000 0.1748490000
C 1.5361500000 4.8623200000 7.8437300000 -0.0003730000 0.0001780000 -0.1981780000
C 3.0731600000 2.2013400000 7.8442500000 -0.0005590000 -0.0069440000 -0.2037300000
C 3.0730800000 7.5239700000 7.8435900000 0.0015890000 -0.0058150000 -0.2003680000
C 1.5362800000 3.0893600000 10.3725500000 -0.0050410000 0.0139010000 -0.1752910000
C 3.0725800000 0.4277900000 10.3724900000 -0.0034250000 0.0126770000 -0.1765140000
C 3.0724800000 5.7508700000 10.3721500000 -0.0062610000 0.0132140000 -0.1752400000
C 1.5377100000 4.8611700000 18.0061800000 -0.0000940000 0.0032720000 -0.1716580000
C 3.0738100000 2.2079900000 18.0264700000 -0.0009160000 -0.0053420000 -0.1451360000
C 3.0735000000 7.5321900000 18.0202600000 0.0043590000 -0.0050930000 -0.1597740000
C 1.5362200000 4.8648600000 12.9187800000 0.0013090000 -0.0022280000 -0.1659520000
C 3.0730300000 2.2026400000 12.9184400000 0.0017670000 -0.0061520000 -0.1651070000
C 3.0730000000 7.5264500000 12.9201000000 0.0030910000 -0.0049470000 -0.1618570000
C 3.0731200000 3.9766400000 15.4710500000 0.0014110000 0.0021340000 -0.1729680000
C 1.5369500000 1.3194500000 15.4769500000 0.0012550000 0.0003770000 -0.1683560000
C 1.5372700000 6.6403900000 15.4768200000 -0.0042280000 0.0034580000 -0.1737250000
C 1.5364400000 3.0923800000 20.5922600000 0.0009710000 -0.0001970000 -0.1732510000
C 3.0726300000 0.4441600000 20.5985200000 -0.0007340000 0.0138170000 -0.1608500000
C 3.0732100000 5.7515500000 20.5411600000 -0.0034050000 0.0070450000 -0.1917980000
H 1.5360100000 4.8621200000 6.7236100000 0.0003570000 -0.0000170000 0.4533860000
H 3.0731900000 2.2012500000 6.7240300000 -0.0001280000 0.0002960000 0.4554640000
H 3.0728500000 7.5242400000 6.7233700000 0.0004360000 -0.0000510000 0.4563000000
69
lattice="3.0729999540 0.0000000000 0.0000000000 1.5365000130 7.9838884020 0.0000000000 0.0000000000 0.0000000000 43.8005676270" Properties=species:S:1:pos:R:3:force:R:3 energy=-472.3776372200 virial="-11.3541151196 -0.0075926396 0.0058219180 -0.0075926396 -25.1499077765 -1.1717079513 0.0058219180 -1.1717079513 -82.3312103005"
Ga 1.5294800000 4.7727500000 26.6746900000 0.0003930000 0.0443330000 -0.0562270000
Ga 3.0658100000 7.7597900000 26.6856800000 0.0016720000 -0.0320410000 -0.0913900000
Ga 3.0654400000 2.3150400000 24.8193300000 0.0077220000 -0.0759010000 -0.8881730000
Ga 1.5359500000 6.5635900000 23.7227800000 -0.0028510000 0.0334520000 0.3818490000
Ga 3.0680900000 0.3769300000 31.4297700000 -0.0001680000 0.0375570000 -0.0041230000
Ga 1.5311900000 3.2692700000 31.4683900000 0.0032460000 -0.0422870000 -0.0248640000
Ga 3.0683700000 5.8747000000 29.6759600000 -0.0003940000 -0.0258750000 -0.4846420000
Ga 3.0667600000 2.2141400000 28.4365300000 -0.0008340000 -0.0110200000 0.4623620000
Ga 3.0684600000 3.9932500000 36.0331500000 -0.0003110000 0.1082180000 -0.4953370000
Ga 1.5310600000 6.8084000000 36.4677200000 0.0016830000 -0.0308310000 -0.4856220000
Ga 1.5327100000 1.3308700000 34.5033300000 -0.0001450000 -0.0270200000 -0.5360200000
Ga 3.0680600000 5.7861700000 33.1721300000 0.0014340000 -0.0887250000 0.5598960000
O 3.0726500000 7.4389000000 22.9435500000 -0.0001150000 -0.0328090000 -0.8539760000
O 1.5293800000 1.3763700000 25.4268500000 0.0036860000 0.0516760000 -0.0320180000
O 3.0759500000 2.1934300000 22.9560200000 -0.0061360000 0.0410880000 -0.9041230000
O 1.5305000000 6.7315400000 25.6250100000 0.0063990000 -0.0175000000 -0.4737140000
O 1.5383900000 4.9296900000 22.9249800000 -0.0051030000 0.0540740000 -1.5026300000
O 3.0657600000 4.0545300000 25.6426500000 0.0034980000 0.0209670000 0.2679250000
O 1.5302600000 3.1486800000 27.9367100000 -0.0049670000 -0.0222290000 0.0357470000
O 1.5319700000 4.9456700000 30.2242300000 -0.0052320000 0.0418750000 -0.0405560000
O 3.0668100000 5.8310800000 27.6951500000 0.0010150000 -0.0788940000 0.3103840000
O 3.0674200000 2.2540000000 30.4236800000 0.0031300000 0.0600380000 -0.2226040000
O 3.0657300000 0.4617800000 27.7382500000 -0.0008890000 0.0051790000 -0.2433350000
O 3.0679900000 7.6259800000 30.3940100000 0.0011770000 0.0082520000 0.2625020000
O 1.5316400000 6.7378400000 32.6826500000 -0.0007140000 -0.0271690000 0.0172700000
O 3.0691000000 0.5016000000 35.1604000000 -0.0019300000 0.0677490000 -0.1549700000
O 1.5316700000 1.3669200000 32.5212800000 0.0005140000 -0.0729710000 0.2689200000
O 3.0691100000 5.7273400000 35.1272700000 -0.0050600000 -0.0498130000 -0.4218310000
O 3.0678000000 4.0113300000 32.4975000000 0.0020110000 0.0086570000 -0.2562410000
O 1.5319000000 3.0568600000 35.3063600000 0.0035090000 -0.0297110000 0.0470610000
Si 1.5358800000 4.8641000000 10.7443200000 0.0034250000 -0.0048620000 0.3939520000
Si 3.0727400000 2.2021300000 10.7444500000 0.0011470000 -0.0047560000 0.3922740000
Si 3.0725500000 7.5250600000 10.7451100000 0.0017410000 -0.0018770000 0.3892340000
Si 1.5365200000 3.0884000000 8.1190900000 0.0015070000 0.0000270000 0.4877120000
Si 3.0731600000 0.4269900000 8.1189000000 -0.0023790000 0.0011490000 0.4873380000
Si 3.0724700000 5.7497300000 8.1185300000 0.0054040000 0.0018890000 0.4877800000
Si 1.5367100000 4.8621300000 15.9783600000 0.0021610000 -0.0008110000 0.4396730000
Si 3.0735700000 2.2059000000 15.9894700000 -0.0025190000 -0.0026700000 0.3907930000
Si 3.0737100000 7.5300600000 15.9837100000 0.0000780000 -0.0017580000 0.4071950000
Si 1.5366100000 4.8608900000 21.2089500000 0.0055060000 0.1829240000 1.0646740000
Si 3.0728800000 2.2314200000 21.2860900000 0.0031810000 -0.0233830000 1.4562160000
Si 3.0725700000 7.5222300000 21.1429500000 0.0017120000 -0.1306830000 0.6500090000
Si 3.0726600000 3.9764800000 13.3629500000 0.0049540000 0.0026020000 0.3488040000
Si 1.5366000000 1.3174200000 13.3660900000 0.0001000000 -0.0007570000 0.3360940000
Si 1.5365700000 6.6396300000 13.3656100000 0.0013070000 -0.0054490000 0.3369540000
Si 1.5373500000 3.0934700000 18.6234000000 -0.0008190000 0.0160200000 0.3293190000
Si 3.0734900000 0.4378500000 18.6068200000 -0.0006040000 -0.0242780000 0.2541750000
Si 3.0743800000 5.7482300000 18.5850600000 -0.0073740000 0.0117750000 0.4046190000
C 1.5361500000 4.8623200000 7.4913000000 -0.0021790000 0.0050380000 -0.5282380000
C 3.0731600000 2.2013400000 7.4918300000 -0.0027450000 -0.0010540000 -0.5323360000
C 3.0730800000 7.5239700000 7.4911600000 -0.0012170000 -0.0003770000 -0.5310700000
C 1.5362800000 3.0893600000 10.0899500000 -0.0064290000 0.0109090000 -0.3982070000
C 3.0725800000 0.4277900000 10.0898900000 -0.0034650000 0.0106170000 -0.3973430000
C 3.0724800000 5.7508700000 10.0895400000 -0.0058160000 0.0098200000 -0.3946280000
C 1.5377100000 4.8611700000 17.9343700000 -0.0028010000 0.0075240000 -0.3925750000
C 3.0738100000 2.2079900000 17.9552200000 0.0008090000 -0.0040870000 -0.3402520000
C 3.0735000000 7.5321900000 17.9488400000 0.0039890000 -0.0055980000 -0.3697340000
C 1.5362200000 4.8648600000 12.7064900000 -0.0023490000 0.0038000000 -0.3638300000
C 3.0730300000 2.2026400000 12.7061400000 -0.0010490000 0.0014010000 -0.3651490000
C 3.0730000000 7.5264500000 12.7078500000 -0.0018780000 0.0004610000 -0.3617870000
C 3.0731200000 3.9766400000 15.3292300000 0.0019730000 0.0055050000 -0.3903060000
C 1.5369500000 1.3194500000 15.3353000000 0.0021580000 -0.0011470000 -0.3772030000
C 1.5372700000 6.6403900000 15.3351700000 -0.0025370000 0.0015880000 -0.3891420000
C 1.5364400000 3.0923800000 20.5918600000 0.0009850000 -0.0155380000 -0.3844630000
C 3.0726300000 0.4441600000 20.5983000000 0.0001090000 0.0404280000 -0.3616770000
C 3.0732100000 5.7515500000 20.5393500000 -0.0036820000 -0.0019560000 -0.4441830000