106
lattice="3.0729994770 0.0000000000 0.0000000000 0.0000000000 15.9677772520 0.0000000000 0.0000000000 0.0000000000 36.0000000000" Properties=species:S:1:pos:R:3:force:R:3 energy=-723.9943727100 virial="0.7124359950 -1.7808749899 -0.1430230393 -1.7808749899 -7.3053107766 -1.6746882114 -0.1430230393 -1.6746882114 -15.2143679767"
Ga 1.7717900000 1.3488300000 23.6647700000 0.2320220000 -0.1330020000 0.2304040000
Ga 0.2044000000 3.5861800000 21.7892000000 0.6770150000 1.5406310000 -1.8380680000
Ga 3.0572200000 1.6169400000 28.3924000000 0.7060320000 -0.1091310000 -0.1421420000
Ga 0.3308100000 3.7278600000 25.6112800000 0.4485870000 0.3228510000 -0.7030280000
Ga 1.7474300000 6.1303800000 23.5542900000 0.5539890000 -0.0486590000 0.3175340000
Ga 1.7279100000 8.0436700000 20.6258000000 -0.3952700000 1.7372480000 0.2719680000
Ga 1.7071100000 4.4480700000 28.7461600000 -0.0974710000 0.1977800000 -0.0394860000
Ga 2.9865100000 6.9711100000 26.5051600000 0.4306000000 0.2411810000 0.7817650000
Ga 2.9030900000 9.2992700000 23.4943700000 -0.3549840000 -0.0093730000 0.3969590000
Ga 1.2944400000 11.8872200000 21.7957100000 0.2848460000 -1.0052080000 -0.8402500000
Ga 1.1694300000 9.7078000000 27.0079300000 0.5973180000 0.9737010000 -0.5192490000
Ga 1.3404400000 11.9719900000 25.0713600000 -0.1608580000 -1.6937730000 1.5414600000
Ga 2.8691200000 14.3969300000 23.4239600000 -0.1699520000 -0.6035520000 0.0877550000
Ga 0.0545200000 0.2029200000 20.7831900000 0.6015060000 -0.6508930000 -0.5241990000
Ga 2.7068300000 12.4467500000 28.4144100000 0.3248730000 0.7324020000 -0.2475430000
Ga 1.6764900000 15.1702800000 26.4050300000 -0.2148940000 -0.7841850000 1.5934070000
O 2.9778100000 0.2503800000 22.5967100000 0.4871350000 -0.1145650000 -0.0479060000
O 0.1631300000 3.7930400000 19.9156000000 -0.0838190000 0.1561530000 1.3729230000
O 1.7762800000 2.6700600000 22.2056600000 -0.7897670000 0.0744480000 0.5857950000
O 0.3104500000 2.1967200000 24.4798300000 -0.6052670000 -0.5472280000 0.4280420000
O 1.6396200000 0.7061100000 27.5243000000 -0.6292880000 0.4998020000 -0.4006630000
O 1.0864600000 6.5808500000 19.8220400000 0.8917200000 0.0669090000 -1.3053310000
O 0.2476300000 5.3833600000 22.5761900000 -0.1906370000 0.3221980000 0.5914510000
O 1.9068200000 4.7305200000 25.0352100000 -0.7118270000 -0.1017440000 -0.2065150000
O 0.1086500000 3.4422600000 27.3923000000 0.0946750000 -0.0917620000 0.0879920000
O 0.0549500000 9.1445700000 19.8330000000 -0.2569370000 -1.4042720000 0.6245380000
O 1.3091900000 8.3978300000 22.4462300000 1.0523260000 -0.5438380000 -0.0184060000
O 2.8627900000 7.5592400000 24.6859800000 -0.2343200000 -1.3383330000 -0.5476190000
O 1.5107800000 6.3009800000 27.3450300000 -1.1097030000 0.3100260000 -0.5616110000
O 1.3062700000 11.5831600000 20.0200300000 0.2646150000 0.7913160000 -1.1724570000
O 2.8617700000 10.9148600000 22.3454500000 -0.4497640000 0.0014790000 0.5729810000
O 1.2750200000 10.0337600000 24.7523600000 0.1174110000 -0.1152270000 0.1280120000
O 2.7311600000 8.9779000000 27.7405900000 -0.0192530000 -0.4968450000 -1.2581360000
O 2.9325800000 14.4857300000 20.0804600000 0.7008800000 0.2323980000 -0.7547570000
O 1.2397400000 13.5539900000 22.5458700000 0.8525020000 0.8931690000 0.0492340000
O 2.8751700000 12.7058500000 24.6012100000 -0.2097600000 1.4338990000 -0.5941260000
O 1.2878700000 11.6247100000 26.9869800000 -0.0350690000 -0.8109480000 -0.3389560000
O 1.6598600000 1.1138100000 20.0977300000 -1.8983710000 -0.0686040000 -1.1133130000
O 1.5447500000 15.3179400000 24.5107100000 -0.1213470000 0.6964120000 0.4255780000
O 0.1227000000 14.2355500000 27.0175500000 -0.1086390000 0.2991880000 -0.5798750000
Si 0.0639500000 14.4329300000 8.4223900000 -0.0665630000 -0.5292720000 -2.9951510000
Si 3.0669700000 9.1306800000 8.2422100000 1.4747730000 -1.1095280000 0.6889070000
Si 3.0517200000 3.7265600000 8.2126200000 -0.3013700000 -0.0870310000 0.2181140000
Si 1.6684100000 1.1145400000 8.1918400000 -0.0243550000 -1.4936450000 -0.9693780000
Si 1.4599800000 11.7319000000 8.2919600000 0.8221770000 0.7969300000 0.1145500000
Si 1.4793000000 6.4824400000 8.0215500000 -0.5049160000 -0.9416420000 1.3295940000
Si 0.1318800000 0.2001600000 10.7328700000 -0.3673120000 0.2446090000 0.4759230000
Si 3.0126400000 5.5334200000 10.6983200000 0.9461250000 0.2056170000 -1.2982830000
Si 0.0094900000 10.8911800000 10.7890600000 1.3606720000 -0.4021570000 -0.1724980000
Si 1.6601200000 13.4929000000 10.8053900000 -1.5220030000 1.2570660000 0.8424580000
Si 1.6615500000 8.1929600000 10.7194600000 -0.3066900000 0.3136940000 0.3816650000
Si 1.6379600000 2.7423300000 10.6696000000 -0.6085180000 2.4844240000 0.5049440000
Si 3.0531100000 14.5042200000 13.3768000000 0.6315630000 0.4170780000 -1.3880120000
Si 0.0908900000 3.8097400000 13.1311400000 -1.5037870000 -0.3859350000 0.7706420000
Si 3.0712700000 9.2793100000 13.2659800000 0.7920910000 -3.0680760000 0.4646790000
Si 1.6089200000 1.1410500000 13.2797800000 -1.4688680000 0.6272860000 -0.2654790000
Si 1.5344400000 6.5433600000 13.1447000000 0.0174100000 -1.1103990000 0.5429390000
Si 1.5598200000 11.8672600000 13.2704000000 0.7897830000 -0.0358140000 0.5817500000
Si 3.0164300000 2.0710500000 15.8090700000 1.8744420000 0.1990150000 -0.1458590000
Si 0.0744300000 7.5064600000 15.7047000000 0.1108110000 -0.9985230000 -2.4984130000
Si 0.1074100000 12.7960800000 15.8516300000 -1.4145370000 -0.4534660000 -0.5946200000
Si 1.6092700000 10.1873000000 15.7811900000 0.2680390000 -0.1946200000 -0.5861860000
Si 1.5503100000 4.7608800000 15.6510400000 1.1760710000 -0.2971300000 0.4945880000
Si 1.6529700000 15.4021800000 15.8993200000 -1.8100570000 0.1846610000 0.1955900000
Si 0.0369600000 14.4322900000 18.3941500000 -0.1697710000 0.9658100000 1.2250480000
Si 0.0116000000 3.9846800000 18.3268100000 0.1344700000 -0.9919450000 -0.3717500000
Si 0.0116500000 9.1624200000 18.1401900000 -0.0496210000 1.1026050000 0.0853280000
Si 1.4064500000 11.8284600000 18.4069000000 0.2163720000 -0.0411230000 0.4979640000
Si 1.3522300000 6.6229600000 18.1005900000 0.6526850000 -3.0604950000 1.8417050000
Si 1.3963600000 1.1852800000 18.3319300000 1.7841260000 1.0054060000 -0.3675350000
C 0.1401400000 1.9214500000 7.5474600000 -0.9437070000 1.6606790000 0.6386980000
C 3.0064300000 12.6379600000 7.7333800000 -0.3433530000 -0.3746280000 -1.1817970000
C 2.9819600000 7.3882800000 7.4836000000 1.2119200000 0.7000170000 -0.3276410000
C 1.6193800000 15.2594400000 7.6749500000 0.0612740000 0.3069410000 1.0411280000
C 1.5945400000 9.9761100000 7.6923900000 -2.7537610000 1.1418460000 -1.3971280000
C 1.4639500000 4.6065800000 7.6187900000 0.6965980000 0.9908360000 -0.0705430000
C 0.0545600000 14.4088600000 10.2433200000 1.4247440000 -0.5834870000 -0.3875550000
C 0.0585200000 3.7391700000 10.0818600000 -0.1331250000 -0.8780090000 0.0227720000
C 0.1463700000 9.1048900000 10.1253600000 -1.3057220000 0.4189800000 -0.1021530000
C 1.6739500000 1.0257100000 10.0557800000 -0.3903620000 0.1105480000 -0.1043520000
C 1.5168400000 6.4486600000 9.9882700000 -0.0775080000 -0.1645270000 0.2070600000
C 1.6065000000 11.7887200000 10.1602100000 -1.1805290000 -0.8901730000 0.3272160000
C 3.0630900000 0.3104300000 12.5791700000 1.5753490000 -1.0837760000 1.4709190000
C 3.0485600000 5.5963200000 12.5588600000 0.5543500000 0.3436610000 -0.0885400000
C 0.0803100000 10.9401200000 12.6784400000 -1.2318350000 1.8104830000 -1.0149820000
C 1.5453700000 13.6225000000 12.6955800000 -0.0756250000 -0.1589880000 0.2001840000
C 1.5741400000 8.2861000000 12.6630400000 -0.2972850000 1.4959070000 -1.0943150000
C 1.5460200000 2.8751600000 12.5436400000 1.3862150000 0.1704330000 0.4530580000
C 0.0995500000 9.3299300000 15.1560800000 -0.7074990000 -1.1334980000 -0.3771560000
C 0.0776100000 3.7899300000 15.0544500000 -0.9911730000 0.7793640000 -0.0448000000
C 0.0289100000 14.5674800000 15.2425900000 1.6238300000 -0.8290750000 -0.0694690000
C 1.6017500000 1.1304600000 15.1761000000 -1.4282420000 0.7254900000 -0.0139010000
C 1.6854800000 6.5394000000 14.9806500000 -1.4478080000 0.5303710000 1.6918180000
C 1.5940000000 11.9197000000 15.1396300000 0.6110980000 0.3585860000 0.7355020000
C 1.6072900000 15.3572400000 17.8223900000 -1.1882660000 0.4435730000 -1.0482150000
C 1.5605100000 4.7938700000 17.5769000000 -0.7244550000 0.5906090000 0.4201410000
C 1.5697200000 10.1275000000 17.6151600000 -0.6040380000 -0.9005390000 0.9853920000
C 2.9389800000 12.7489700000 17.7256200000 1.0351580000 -1.0122730000 0.5901160000
C 2.9171800000 7.3805700000 17.4987300000 0.1650060000 2.1391840000 0.7466040000
C 2.9678200000 2.1350200000 17.7243500000 -0.1024640000 -0.7280470000 0.3150350000
H 1.7720900000 15.1883900000 6.5813200000 -0.4027930000 -0.1800930000 0.1469970000
H 0.0119500000 2.1250200000 6.4706700000 0.3222860000 -0.4774700000 -0.0867620000
H 1.2613500000 4.5650100000 6.5503200000 0.4841300000 -0.1403110000 -0.8175790000
H 0.0228700000 7.7647700000 6.4275800000 -0.3212190000 -0.8046310000 0.3203650000
H 1.2145700000 10.1393800000 6.6240100000 1.2686720000 -0.4305190000 0.5190800000
H 2.8040700000 12.5383100000 6.5835500000 0.8260360000 0.5970840000 1.4574130000
106
lattice="3.0729994770 0.0000000000 0.0000000000 0.0000000000 15.9677772520 0.0000000000 0.0000000000 0.0000000000 36.0000000000" Properties=species:S:1:pos:R:3:force:R:3 energy=-724.2118263500 virial="11.1883113188 -1.2667329635 2.1470104422 -1.2667329635 8.7910546599 4.9963244270 2.1470104422 4.9963244270 19.5593598380"
Ga 1.4676300000 1.5250200000 23.6345000000 0.7320890000 -1.3223820000 -1.8465380000
Ga 0.4423300000 3.9081300000 21.6387200000 -1.0264020000 0.3207050000 -0.1297530000
Ga 0.1217300000 1.7192200000 28.0066800000 0.2851240000 0.5658360000 0.4695580000
Ga 2.8796200000 3.5694500000 25.3677300000 0.3369700000 0.8974830000 0.3156840000
Ga 1.6648700000 6.0134600000 23.5546600000 -0.4691100000 0.5478490000 -0.7146070000
Ga 1.5642800000 8.2099100000 20.7762400000 -0.2654910000 0.2602100000 -0.0317430000
Ga 1.3375900000 4.6573600000 28.6176900000 -0.0611390000 -0.3645020000 -0.2731580000
Ga 2.8154600000 6.8785700000 26.3519300000 -0.6033760000 0.0305190000 2.1344660000
Ga 3.0727500000 8.9192900000 23.6718600000 -0.6814920000 1.9333930000 -2.0078640000
Ga 1.4379500000 11.7827100000 21.9025600000 0.4444930000 -0.5846550000 -1.0645790000
Ga 1.1865900000 9.6940600000 26.4293700000 0.5495710000 -1.3048470000 1.1731680000
Ga 1.3858600000 11.9068600000 25.1754500000 -0.0670490000 1.5673240000 -2.4369210000
Ga 0.0712000000 14.4068200000 23.4171300000 -0.6350010000 -0.5809750000 0.1890910000
Ga 0.0803600000 15.9669800000 20.7138200000 0.7768400000 -0.9300380000 -0.2241710000
Ga 2.9532000000 12.9929200000 28.2987000000 0.0855790000 -0.9680920000 1.0368280000
Ga 1.6698200000 15.2370200000 26.3654600000 -0.4080890000 0.3522180000 -0.5613570000
O 0.0406000000 0.3366100000 22.4917800000 0.3409890000 0.0500660000 1.0430590000
O 2.6805000000 3.8562700000 20.0419500000 0.8416020000 -0.0097710000 -1.6916770000
O 1.8554600000 3.0454100000 22.4071900000 0.0309660000 -0.6582320000 0.3054700000
O 3.0412200000 1.8394000000 24.6848200000 -0.2748600000 0.2824930000 -0.1699890000
O 1.7362200000 0.9872300000 26.9580400000 -0.6453520000 0.0639000000 0.1129150000
O 1.9198600000 6.5698500000 20.1025200000 -1.0005720000 -0.3714110000 -0.8625450000
O 0.1109900000 5.6659900000 22.4848600000 0.5738320000 -1.0573140000 -0.2343810000
O 1.3751800000 4.4873800000 24.6898600000 0.2771940000 0.0319870000 0.5015120000
O 3.0369900000 3.6521300000 27.1602800000 0.0088190000 -0.4542250000 0.6875350000
O 0.0200100000 9.0581400000 20.0301300000 0.4713070000 0.0043440000 -0.4170160000
O 1.4603300000 8.2024600000 22.5959300000 0.7226850000 -0.2119110000 0.5056970000
O 0.0652900000 7.1952100000 24.5746900000 -0.3887670000 -0.6084950000 -0.2671750000
O 1.2447100000 6.2440800000 27.1854200000 0.8032380000 0.5309230000 -0.7096490000
O 1.6817200000 11.7554600000 20.0758500000 -0.1960850000 -0.2047120000 1.4662520000
O 3.0120500000 10.7811900000 22.3313600000 -0.3659350000 -0.4316500000 0.7513030000
O 1.4556300000 9.9376700000 24.5452200000 0.0344280000 -0.3707090000 0.7344560000
O 2.7541700000 8.7989900000 26.8900400000 -0.3442140000 -0.8637180000 0.1819100000
O 3.0015100000 14.3582000000 19.8826800000 0.4788250000 0.5347750000 0.6338490000
O 1.4521100000 13.5265100000 22.5386300000 0.6317460000 0.5991870000 -0.7163380000
O 2.9081800000 12.6568100000 24.5229100000 0.6124630000 -0.3939990000 0.8626360000
O 1.2804300000 11.4213400000 26.8875000000 -0.0724290000 0.7186460000 1.3787760000
O 1.6812700000 0.8274600000 19.9685600000 -1.1648250000 1.3374980000 0.8037750000
O 1.7061400000 15.0764300000 24.5130200000 -0.8560470000 1.1812860000 0.2718510000
O 0.0966700000 14.3648400000 26.9954400000 0.7192790000 0.2884220000 -0.3274600000
Si 3.0603900000 14.4979600000 8.2429700000 1.4451640000 -1.5566370000 2.0268610000
Si 0.0875300000 9.1527800000 8.2059100000 0.1495610000 0.4416210000 0.4419130000
Si 0.1209000000 3.8743600000 8.1664800000 -2.6118840000 -0.7824390000 -0.9497740000
Si 1.4407100000 1.1928400000 8.4053500000 1.0599530000 0.1028080000 -0.2003200000
Si 1.7225600000 11.7474400000 8.4211900000 -2.1636420000 -0.1952910000 0.4721890000
Si 1.6348600000 6.4770600000 8.3558500000 -0.1584370000 0.6240280000 -1.1537400000
Si 3.0314800000 0.2943100000 10.9131000000 0.3884500000 1.1971550000 -0.6216860000
Si 3.0326500000 5.6288800000 10.8258100000 1.6316630000 1.3538380000 0.6028430000
Si 0.0965100000 10.9352300000 10.9414200000 0.2319100000 0.8548550000 0.1326080000
Si 1.6096500000 13.6327200000 10.8546100000 -1.1186630000 -0.5300190000 0.0835290000
Si 1.5579600000 8.3474700000 10.8069800000 0.1687070000 -0.1798050000 1.0176320000
Si 1.6035000000 3.0804700000 10.7015800000 -1.2199570000 -0.1255040000 1.2728810000
Si 0.0127100000 14.4347000000 13.3462200000 -0.0007970000 0.8240580000 0.0624330000
Si 0.0529800000 3.8759700000 13.4051200000 -1.7357020000 0.0980190000 -0.7749530000
Si 0.0088800000 9.0039000000 13.4259100000 1.0867020000 1.0582620000 1.0932300000
Si 1.5281900000 1.3414200000 13.3668000000 -0.8004040000 -3.1595710000 -0.7383250000
Si 1.5812100000 6.4807200000 13.4095400000 -0.5445930000 -1.2193690000 -0.7917340000
Si 1.5478100000 11.7186200000 13.3824000000 1.1953500000 0.2217670000 0.3487300000
Si 3.0343500000 2.0569200000 15.8691800000 1.4180750000 -0.8841800000 0.5836950000
Si 3.0561300000 7.2536900000 15.9510400000 1.9367660000 1.5317530000 -0.9657550000
Si 0.0210400000 12.5285900000 15.8985500000 -1.0824350000 0.3637660000 -0.4042300000
Si 1.5316000000 9.9235100000 15.8958500000 0.3669320000 0.6603720000 0.2709060000
Si 1.4525100000 4.7251500000 15.9357300000 1.4691670000 0.0015830000 -0.4582060000
Si 1.5257800000 15.3082300000 15.8332100000 -0.1046390000 -1.1017120000 -0.4062620000
Si 0.0401100000 14.3893600000 18.2383800000 0.1536410000 -1.0196990000 0.8964180000
Si 3.0628700000 3.8989100000 18.3561100000 -0.5243500000 -1.6433670000 2.5949110000
Si 0.0345000000 9.1389800000 18.2807900000 0.5124450000 -0.3631910000 0.4430460000
Si 1.5735700000 11.7330800000 18.5244900000 -0.4893610000 1.4128970000 -1.6560370000
Si 1.6610300000 6.4638500000 18.4593000000 -0.1502210000 0.6150340000 0.5361330000
Si 1.6382400000 1.1368800000 18.3267700000 0.2323720000 -0.5361760000 -1.0001590000
C 3.0070700000 2.0063100000 7.6829600000 -0.1422860000 1.0328760000 0.0143470000
C 0.1039300000 12.5825000000 7.8456500000 1.3194690000 2.3246140000 0.5979300000
C 0.1119600000 7.3681400000 7.7005100000 -0.3039450000 -0.2307690000 0.8884940000
C 1.5738800000 15.3962400000 7.7604300000 -1.3186260000 0.2127010000 -0.8616610000
C 1.6427500000 10.0448300000 7.5842900000 -0.3313530000 -0.1643500000 2.2606890000
C 1.5512900000 4.7573500000 7.5495200000 2.3873920000 0.6497600000 -0.1775000000
C 0.0089700000 14.4867200000 10.2227900000 0.9922990000 1.1619640000 -0.8927990000
C 0.0117800000 3.9766800000 10.0154600000 0.9246220000 -0.9414730000 1.2571040000
C 0.0215300000 9.2657400000 10.1879500000 0.2610960000 -1.3859700000 -0.7243780000
C 1.5194500000 1.3121400000 10.3058800000 -0.3368040000 -2.0326890000 -1.5238260000
C 1.5977600000 6.5886400000 10.2163400000 -1.2728000000 -0.8660460000 0.0129380000
C 1.6673900000 11.8585100000 10.3003000000 -0.6192840000 -0.9670530000 0.0262840000
C 2.9835600000 0.3403400000 12.7538300000 1.2556200000 -0.3739220000 0.8047810000
C 0.0037900000 5.6174900000 12.7617600000 0.6711500000 -0.2461190000 -0.5365800000
C 0.0986400000 10.7529600000 12.8623400000 -1.5120870000 1.3508080000 -1.8943260000
C 1.5701500000 13.5600700000 12.7228400000 -0.4337310000 -0.6734050000 0.1617970000
C 1.5909300000 8.1764200000 12.8397100000 -1.0226730000 1.1045220000 -2.1099600000
C 1.4678500000 3.0106900000 12.6458800000 1.9030110000 1.2100670000 0.5924200000
C 0.0096600000 9.0750900000 15.3577800000 -0.4222210000 -1.6560560000 -0.9946180000
C 3.0497600000 3.8420700000 15.3168700000 -0.7600600000 -0.5118350000 -0.6632880000
C 3.0298000000 14.3394200000 15.1901400000 0.7153120000 0.6542890000 1.1119980000
C 1.5672000000 1.1195100000 15.2378000000 -1.1143380000 1.5030860000 0.0327380000
C 1.6210000000 6.4391600000 15.2386600000 -2.1052640000 -0.4230240000 0.8992260000
C 1.4887700000 11.6266700000 15.2378700000 1.2557670000 1.5543920000 0.0647090000
C 1.6032300000 15.3292400000 17.7156000000 -0.6651650000 0.1824310000 -1.3603310000
C 1.5182600000 4.7582700000 17.8060100000 0.1893620000 -0.5184750000 -0.3996590000
C 1.5955000000 10.0563000000 17.7736200000 -0.6495370000 -1.9852160000 0.4252230000
C 3.0710100000 12.5282000000 17.7558900000 0.8299240000 1.5482880000 0.2990340000
C 0.1048000000 7.2911200000 17.7731400000 -0.0239460000 0.7709870000 0.6913250000
C 0.1187700000 2.0515600000 17.8037700000 -0.9189790000 0.6510390000 -0.1038860000
H 1.5678800000 15.6122000000 6.6693300000 -0.0090240000 -0.2649880000 0.0610340000
H 2.9296100000 1.9847200000 6.5535600000 0.2671590000 -0.1388770000 0.8195150000
H 1.6962300000 5.0161200000 6.4538300000 -0.4689470000 -0.5228590000 0.8523180000
H 0.0865500000 7.3750100000 6.6077700000 0.0422120000 -0.1711630000 -0.3465430000
H 1.4486700000 10.3030000000 6.5647400000 0.2583270000 -0.0670740000 -1.1523960000
H 0.0014200000 12.5666200000 6.7911100000 0.1847690000 -0.2427500000 -1.7638050000
106
lattice="3.0729994770 0.0000000000 0.0000000000 0.0000000000 15.9677772520 0.0000000000 0.0000000000 0.0000000000 36.0000000000" Properties=species:S:1:pos:R:3:force:R:3 energy=-723.8048075200 virial="9.1535406653 -8.2980044524 3.4786726902 -8.2980044524 1.8879107334 1.0574796285 3.4786726902 1.0574796285 48.1107916078"
Ga 1.4513500000 1.3379300000 23.2846000000 0.6474380000 0.0112770000 2.0000810000
Ga 0.2450400000 3.8256400000 21.6852700000 -0.2359210000 -0.4409820000 -0.8488110000
Ga 0.1944000000 1.9114500000 27.9482000000 -0.5571590000 -0.5335230000 0.8997400000
Ga 2.7081500000 3.5279800000 25.3881200000 1.3835830000 -0.6233300000 -1.6787180000
Ga 1.5439200000 6.1179700000 23.4872200000 0.1680140000 -0.4263850000 1.1493650000
Ga 1.4454200000 8.1121900000 20.8631400000 -0.0495950000 0.2556290000 -2.1425800000
Ga 1.0764300000 4.6423000000 28.4691600000 0.2837040000 -0.3234440000 1.1586280000
Ga 2.6913000000 6.6385100000 26.4061900000 0.3708190000 0.8356240000 0.6219740000
Ga 0.0981600000 9.1956300000 23.5035300000 -0.6145310000 -0.1336430000 1.0520350000
Ga 1.6491900000 11.6851900000 21.8007400000 0.7055420000 1.1987520000 -0.6163630000
Ga 1.3273100000 9.5859800000 26.6517400000 0.2962990000 0.0654850000 -0.9440410000
Ga 1.4873200000 11.9382700000 25.0796100000 0.2373180000 -0.4941780000 -0.9877250000
Ga 0.0996400000 14.3212000000 23.4413400000 -0.2153550000 -0.3362170000 -0.8697270000
Ga 0.0539000000 0.1379800000 20.6732800000 0.7575210000 -0.5937780000 -1.2470030000
Ga 0.1389100000 13.1471700000 28.4991000000 -0.0100260000 0.0616590000 -0.3250460000
Ga 1.6360700000 15.5174400000 26.3421800000 -0.5210430000 -0.6640220000 -0.0577580000
O 0.1075400000 0.1718100000 22.4331900000 -0.2126830000 0.5517520000 0.8382720000
O 2.8417800000 3.6902600000 19.9520100000 0.7287540000 0.0952650000 0.4611770000
O 1.7512900000 2.9274000000 22.2552800000 -0.5871190000 -0.3499390000 -0.0076790000
O 3.0053900000 1.9129700000 24.3560700000 -0.2164930000 0.5203930000 0.1731030000
O 1.6029600000 1.3185900000 26.7655000000 0.4631420000 0.1889270000 0.0648010000
O 1.4807800000 6.4957700000 20.0492300000 0.4172690000 -0.2777330000 0.6509590000
O 0.0624300000 5.4672900000 22.4535500000 -0.1690290000 0.9860420000 0.8039150000
O 1.3255800000 4.6310800000 24.9741900000 -0.7347560000 0.2114660000 -0.9527770000
O 2.9026300000 3.6669500000 27.1687000000 -0.0186690000 0.2798490000 0.4655470000
O 2.9762600000 9.1094700000 20.1066800000 0.5189630000 -1.2711320000 0.5854900000
O 1.5902300000 8.0722800000 22.6590200000 -0.1403150000 0.4925590000 0.4736950000
O 2.9204800000 7.0514900000 24.6705900000 0.0903970000 -0.1759110000 -1.9613690000
O 1.1722500000 6.3044000000 27.3450200000 -0.0230670000 0.0235100000 -0.1754020000
O 1.7564700000 11.5877700000 20.0067500000 -0.1830290000 0.5470350000 0.2928510000
O 0.1654000000 10.8190000000 22.4783300000 -0.8633110000 -0.3242730000 -0.4531580000
O 1.5351600000 9.9310800000 24.5812300000 0.3779880000 -0.3235080000 0.0301490000
O 2.8738700000 8.6598900000 26.8142200000 -0.3404940000 -0.6702620000 0.9047620000
O 0.3182600000 14.4582600000 19.9729100000 -0.6431240000 0.1237260000 -0.7745210000
O 1.6956600000 13.4900100000 22.3282700000 -0.3594670000 0.6261050000 1.2005000000
O 3.0276700000 12.7465400000 24.5665900000 0.1051020000 0.3038840000 0.2616450000
O 1.3816000000 11.3631900000 26.7311800000 -0.1707980000 0.6654890000 2.5346110000
O 1.6824400000 1.0384400000 19.9594900000 -1.2110390000 -0.4228980000 -0.0577240000
O 1.5322300000 15.2677000000 24.4561300000 0.3357790000 -0.1965260000 -0.2888730000
O 0.0564200000 14.6869100000 27.1150600000 0.4657060000 0.0473630000 -0.3785810000
Si 0.1037500000 14.6359700000 8.3058200000 -0.4655500000 -1.2115350000 -0.2018750000
Si 0.1524600000 9.1829800000 8.4866300000 -1.1180040000 0.2506850000 -1.0454460000
Si 3.0348500000 3.8757800000 8.6247800000 0.6383900000 -0.1981510000 0.7683060000
Si 1.6297200000 1.2546600000 8.3527200000 -0.4762370000 1.3992630000 -2.4979900000
Si 1.5850500000 11.8294700000 8.1925800000 0.3113390000 2.9711390000 1.2589920000
Si 1.5227700000 6.6298800000 8.4677500000 0.4151280000 -1.7931840000 0.1359640000
Si 0.0463700000 0.3275100000 10.7873300000 -0.9655940000 -0.4093980000 0.2501630000
Si 0.1383600000 5.6716700000 10.9982600000 -1.8698020000 -0.6549570000 0.7704140000
Si 3.0578100000 10.9868800000 10.7194100000 1.0217330000 -0.7795000000 1.1443190000
Si 1.4894900000 13.6135200000 10.7561700000 0.2190900000 -0.2853170000 0.1297950000
Si 1.6331400000 8.3152100000 10.9865700000 0.2500840000 -1.1114140000 -1.5858420000
Si 1.5536600000 2.9635000000 11.1006700000 0.1551860000 -0.7241280000 -1.6605650000
Si 2.9122500000 14.4109500000 13.2596000000 1.2908080000 -0.2844790000 0.6659120000
Si 0.0450500000 3.7331000000 13.4530900000 0.4188410000 0.4495380000 0.1421710000
Si 3.0254300000 9.2210800000 13.3155300000 -0.6543260000 -0.0621120000 0.9624130000
Si 1.4811700000 0.9716400000 13.4071200000 0.2615180000 1.4405680000 -1.0975960000
Si 1.5758900000 6.5249200000 13.5420300000 0.4536620000 -1.0461690000 -1.1624590000
Si 1.3819600000 11.8555000000 13.2969900000 -0.2225040000 -2.0159030000 -0.1458370000
Si 0.0488300000 1.8415800000 15.8245100000 0.0872750000 0.6396060000 0.6022620000
Si 0.1943500000 7.3606300000 15.8921500000 -1.8632470000 -2.1291230000 1.6539010000
Si 3.0109600000 12.5777900000 15.8403900000 0.8372390000 0.8723550000 0.1394170000
Si 1.5455200000 10.0080700000 15.9343900000 -0.2929280000 -1.0944810000 -0.3918150000
Si 1.7393300000 4.5705400000 15.9909700000 -0.6027830000 -0.6581400000 -1.9628910000
Si 1.5313300000 15.1711300000 15.8063900000 -0.4223980000 0.7237730000 -0.3922570000
Si 0.0916600000 14.3812800000 18.3347500000 0.5883280000 -0.3757070000 -0.1695220000
Si 0.0874700000 3.7603300000 18.3774900000 1.1736400000 -2.2436560000 0.6569740000
Si 0.0300100000 9.0986700000 18.3603100000 -0.6090580000 -1.6494750000 1.0046150000
Si 1.6179400000 11.7844300000 18.4214400000 0.0666150000 -0.7494550000 0.3048000000
Si 1.7145900000 6.3533100000 18.4370300000 -0.7386830000 1.1788330000 -0.6890260000
Si 1.5760800000 0.9686900000 18.2355100000 -0.5098180000 1.3151810000 -0.3197930000
C 0.0741800000 2.2074900000 7.7047600000 0.1561030000 -0.1893440000 1.2991040000
C 0.0668700000 12.9012000000 7.6608500000 -0.1411890000 -2.6441230000 2.0275840000
C 3.0709200000 7.4713600000 7.8334500000 0.2102340000 -0.3028830000 0.5039340000
C 1.6409100000 15.4686200000 7.7327600000 -0.0201380000 0.4612920000 -0.5423920000
C 1.6379300000 10.0641700000 7.8337000000 0.7304830000 -0.4742640000 0.8883660000
C 1.5194700000 4.7753400000 8.0927600000 -0.9719660000 -0.2336850000 -1.3011660000
C 3.0358500000 14.5275000000 10.1691200000 0.4990390000 -0.2374080000 0.0714220000
C 0.0189100000 3.8474800000 10.5398500000 -0.0839910000 -0.0058880000 -1.2172560000
C 0.1415100000 9.1156300000 10.2869400000 -0.9977980000 1.3901560000 0.7347430000
C 1.5505200000 1.1958900000 10.1550700000 0.6803630000 0.8996050000 2.0950220000
C 1.5901500000 6.5262500000 10.3487800000 1.4734310000 0.8596980000 -0.2187540000
C 1.5778400000 11.8355900000 10.1202200000 -1.2687670000 0.5226750000 -0.7689110000
C 3.0071200000 0.2099600000 12.6704600000 0.3339390000 -0.2331170000 0.3235930000
C 0.0747900000 5.6255400000 12.9025700000 -0.5329340000 -0.5167860000 -0.3503860000
C 2.8648800000 10.9831800000 12.5996300000 1.6595830000 -0.4739730000 1.3706880000
C 1.4135000000 13.5223500000 12.6645900000 -0.3932000000 1.7204070000 -0.6274830000
C 1.4553400000 8.2903400000 12.7692700000 1.1421870000 -0.0762960000 1.7981620000
C 1.5861000000 2.7786500000 12.9055000000 -0.4229420000 0.7237820000 -0.1139440000
C 3.0713200000 9.0561900000 15.2669900000 0.3758250000 2.0478400000 -0.4634700000
C 0.1933600000 3.6026900000 15.2906900000 -0.6777640000 1.9387600000 1.0719670000
C 3.0192100000 14.3328000000 15.1864800000 0.6791600000 -0.1176710000 -0.9616330000
C 1.5782900000 0.9979200000 15.2130400000 -0.2708100000 -1.0609480000 0.5461620000
C 1.6326300000 6.3429100000 15.3756300000 1.2557310000 1.3735360000 -0.4161010000
C 1.4966100000 11.7569100000 15.1921300000 -0.4426650000 -0.8653810000 0.2488650000
C 1.6488200000 15.2094100000 17.6253800000 -0.7001620000 -0.1453720000 1.4109170000
C 1.7051900000 4.5866800000 17.8089400000 -1.8878330000 0.9734260000 -0.0295640000
C 1.5405700000 9.9360300000 17.9092500000 0.7808420000 1.5881750000 -2.5047660000
C 0.0876400000 12.6323500000 17.7187900000 -0.5117650000 -0.6471070000 0.4769650000
C 0.1516600000 7.2746900000 17.8141900000 0.0101900000 0.6177390000 -0.4211710000
C 3.0596700000 1.8724300000 17.7091600000 1.5525220000 0.7834530000 0.4010030000
H 1.6711800000 15.4132400000 6.6204300000 -0.1544040000 0.2070090000 0.2671630000
H 0.1494400000 2.4832300000 6.6222000000 -0.2870020000 -0.5011060000 0.5082820000
H 1.1884200000 4.3273600000 7.0982900000 1.1044520000 1.1721210000 -0.1017470000
H 0.1114600000 7.4090300000 6.7602000000 -0.1935230000 0.0627910000 -0.7697580000
H 1.9168600000 9.8304600000 6.8431400000 -0.2878610000 -0.2633070000 -1.9380160000
H 0.1343100000 12.6685200000 6.6436600000 -0.0516300000 0.3714300000 -2.4203750000
106
lattice="3.0729994770 0.0000000000 0.0000000000 0.0000000000 15.9677772520 0.0000000000 0.0000000000 0.0000000000 36.0000000000" Properties=species:S:1:pos:R:3:force:R:3 energy=-723.8458885300 virial="2.3296040711 1.2586181811 4.7459348787 1.2586181811 -2.4865082394 -3.7964612394 4.7459348787 -3.7964612394 -22.2632582458"
Ga 1.4795300000 1.2005100000 23.6727000000 1.0083490000 0.1012530000 -1.3654920000
Ga 2.5949800000 3.8256700000 21.7156800000 1.0040900000 -1.4492010000 -0.9185880000
Ga 2.9382200000 1.9008900000 28.2307200000 -0.2694560000 0.4136470000 0.4078920000
Ga 0.0957800000 3.4939800000 25.3731100000 -1.5070350000 0.1290240000 0.7870800000
Ga 1.1914600000 5.9820900000 23.6859100000 1.0846800000 0.2090000000 -0.3461690000
Ga 1.5244500000 8.0348100000 20.8946100000 -0.0677250000 0.1885920000 -1.5336130000
Ga 1.1123700000 4.6796900000 28.6246400000 0.2171130000 -0.2629720000 0.0800690000
Ga 0.0204100000 6.9634000000 26.5573300000 -0.9816560000 -0.0020870000 0.4625990000
Ga 2.9735500000 9.3915100000 23.6118800000 0.0733740000 0.1561420000 -0.4007220000
Ga 1.7156600000 11.9022000000 21.7356800000 -0.0761310000 0.8997280000 0.9249790000
Ga 1.5367200000 9.8183300000 26.9438600000 -0.1266660000 -1.9386490000 0.0153620000
Ga 1.7340300000 12.0396900000 25.5149400000 -0.7804800000 -0.2736690000 -0.1971300000
Ga 0.1522800000 14.2862200000 23.6273600000 -0.0595800000 0.9554970000 -0.7200310000
Ga 0.0093100000 0.0033900000 20.8477700000 -0.0875540000 0.5385340000 -1.0545640000
Ga 0.7199900000 13.4783100000 28.6081300000 -0.1916510000 -0.7763820000 0.5660510000
Ga 1.6481900000 15.3898100000 26.5364300000 0.4084190000 0.3816500000 -0.8702800000
O 0.0105700000 0.3150700000 22.6572400000 -0.0701770000 -1.3651810000 -0.7540280000
O 2.6843100000 3.6390100000 19.8694600000 0.5509580000 0.2822570000 1.1435670000
O 1.1926700000 2.7974600000 22.4018800000 -0.0753760000 1.0352430000 -0.4955980000
O 0.0014700000 1.7954800000 24.5763300000 -1.0010940000 1.3464400000 2.0585250000
O 1.3755300000 1.0094600000 27.3333400000 0.5237830000 0.5023890000 0.0730160000
O 1.5815100000 6.5243300000 19.8801800000 -0.0773290000 0.2744300000 0.9810270000
O 2.8183600000 5.5510300000 22.4727000000 -0.5844350000 0.1641220000 0.6138380000
O 1.5186700000 4.4738600000 24.8411900000 0.7863870000 -0.0011740000 -0.1092930000
O 2.8154600000 3.6757100000 27.2381400000 0.4637410000 -0.6419990000 -0.5531830000
O 3.0716700000 9.0157200000 20.0680600000 0.0168640000 -0.4700560000 0.2459700000
O 1.3343400000 8.3766000000 22.6978200000 0.6551670000 0.2681030000 0.3596090000