106
lattice="3.0729994770 0.0000000000 0.0000000000 0.0000000000 15.9677772520 0.0000000000 0.0000000000 0.0000000000 36.0000000000" Properties=species:S:1:pos:R:3:force:R:3 energy=-719.8611145200 virial="-5.3871019155 2.1980255211 -12.0270005378 2.1980255211 -9.8904753647 -12.2100131364 -12.0270005378 -12.2100131364 -29.9089047590"
Ga 1.4397600000 1.1472100000 23.7168700000 -0.9900440000 -0.5320440000 -0.1872510000
Ga 2.3640100000 3.7009800000 21.8966900000 0.0634010000 -0.9911650000 0.3271650000
Ga 2.3632700000 1.4413700000 26.7278900000 2.6943990000 2.2494380000 -0.0756110000
Ga 3.0528800000 4.3931300000 26.2340300000 -0.2375720000 1.6019000000 0.3635750000
Ga 1.3723700000 5.8828200000 23.7407000000 -1.5932720000 0.2445600000 0.5741270000
Ga 1.8582600000 8.1155700000 21.0339100000 0.5715590000 1.2267210000 0.9519370000
Ga 2.0224700000 6.6194900000 28.6868100000 -0.4613280000 -0.0856930000 -0.2862640000
Ga 2.8707400000 8.0713000000 26.1244700000 1.5114520000 -1.0851100000 -0.0931840000
Ga 1.0198700000 9.4909600000 23.6602600000 1.0214730000 -1.3878270000 -0.1072400000
Ga 2.8501200000 11.4136300000 21.3332800000 1.4401450000 -0.2307730000 0.1324260000
Ga 1.3870000000 9.9847200000 28.7719200000 0.1127840000 -0.4169860000 -0.7309610000
Ga 2.7143200000 11.7194900000 25.7028200000 1.5726420000 -0.3577040000 -0.5666170000
Ga 1.5547200000 13.8051300000 23.1340400000 0.0467520000 0.7421440000 1.4268530000
Ga 2.6214700000 0.1940400000 20.7343200000 -1.1879570000 -1.3036370000 -1.2875700000
Ga 3.0094800000 12.6561500000 28.5431200000 -0.1873860000 0.0756770000 0.3104090000
Ga 1.1396800000 14.6112900000 26.1007500000 -0.6663830000 -0.5804690000 0.7319930000
O 2.5416600000 0.0064600000 22.4904100000 -0.2242230000 0.9039120000 -0.3199230000
O 2.2066800000 3.2915300000 20.0781200000 0.6408150000 1.1206580000 0.7185520000
O 0.7909600000 2.8954000000 22.8366200000 1.3164400000 0.3724190000 -1.8073770000
O 2.9004000000 1.5306000000 24.7918500000 -0.2681310000 0.4297220000 1.4097280000
O 1.1633800000 0.2274400000 27.2034600000 -1.4576080000 -0.5953510000 -0.3249920000
O 1.1929000000 6.7881500000 20.0352900000 0.1107760000 -0.7553110000 -0.6249130000
O 2.7296200000 5.4838200000 22.6270600000 1.1059280000 -0.3289530000 -0.2297610000
O 1.4839300000 4.6059200000 25.1252600000 0.5465360000 -0.2925550000 0.0253180000
O 0.3798600000 3.0373900000 27.3521200000 -0.7933950000 -2.4124450000 -0.7282100000
O 2.8861400000 9.4518800000 20.0285800000 -1.0613720000 -1.2313770000 0.0692410000
O 0.3413900000 8.2826400000 22.1897200000 0.2562030000 -0.8040220000 1.0587250000
O 1.3215400000 7.4256000000 24.7883700000 -0.1050310000 1.1278730000 -0.3889500000
O 0.1610000000 6.0997800000 27.2055900000 -0.5650870000 -0.2570830000 -0.5991850000
O 1.4223200000 11.8234700000 20.2085100000 -1.5983340000 0.3873590000 -2.4001020000
O 1.3689600000 10.6280400000 22.2926900000 0.2484160000 0.5675470000 0.3261160000
O 2.8027300000 9.8156600000 24.8878200000 -1.2157970000 -0.2230460000 -0.1635560000
O 1.4886100000 8.4800500000 27.2401300000 -1.1994810000 0.2330970000 0.3225090000
O 2.5568900000 14.5155700000 19.7877900000 0.0255150000 1.1085840000 2.9403420000
O 0.0182500000 13.0899200000 22.4515200000 -0.5399450000 -0.1005600000 -0.4888030000
O 1.2935900000 12.4280000000 24.9037000000 -2.0927800000 -0.1294330000 -1.4972220000
O 2.6584100000 11.0034200000 27.3728700000 0.3347230000 0.1998680000 1.1154370000
O 0.9752600000 0.9712100000 19.9287600000 1.0734370000 0.5738050000 -1.1810980000
O 1.4429300000 15.2415500000 24.4161300000 -0.6167180000 -1.8534090000 0.1168120000
O 2.5964600000 13.5298900000 26.6381600000 1.6011380000 2.1717440000 0.7884600000
Si 2.4683800000 14.3618000000 7.9296700000 0.2584250000 -0.9415820000 0.3944940000
Si 2.5577000000 9.0085700000 8.0429800000 1.8251730000 0.2169020000 1.7558240000
Si 2.6742800000 3.7388500000 8.2254300000 -0.4441570000 0.0136510000 -0.8539270000
Si 1.1395900000 1.0390300000 7.9455000000 -0.4009920000 -0.9254190000 -0.1934950000
Si 1.0108000000 11.6254000000 8.1115300000 -0.9678880000 0.8976150000 0.4834480000
Si 1.1212500000 6.4454300000 8.1892900000 0.9421350000 -1.2099010000 -0.9752810000
Si 2.6837500000 0.2225300000 10.4917800000 -1.2255420000 -2.0400070000 1.6871390000
Si 2.8703900000 5.4884900000 10.7044100000 -0.1237350000 0.9249890000 -0.0895200000
Si 2.7474300000 10.7554900000 10.7649600000 0.5766860000 1.1137150000 -0.8122990000
Si 1.2079900000 13.3913400000 10.4819600000 0.3358360000 1.5488770000 0.8782730000
Si 1.1261700000 8.2392800000 10.6867700000 0.1833080000 -0.4325300000 -0.1594170000
Si 1.2816600000 2.7588600000 10.6800000000 -0.4004240000 0.6318300000 -0.5809960000
Si 2.6493400000 14.4593000000 13.1633300000 0.8926540000 -0.8962490000 -3.2229210000
Si 2.8365300000 3.8142100000 13.2043500000 -1.0193270000 -0.3855870000 0.9760600000
Si 2.6429800000 9.0945300000 13.3209600000 -0.5667330000 0.7690990000 -1.3379140000
Si 1.0319000000 1.1405100000 13.1654200000 1.2901380000 -0.4736160000 0.2874070000
Si 1.1174800000 6.5117100000 13.0969100000 0.8496910000 -0.1967980000 2.8997360000
Si 1.1718700000 11.8194600000 13.2330700000 0.0505170000 -1.4847880000 -1.8737060000
Si 2.5490800000 1.9667100000 15.7139400000 -0.3462170000 0.9148820000 -0.7950360000
Si 2.4986400000 7.4722900000 15.7710800000 2.2197810000 -1.8381350000 -0.7780100000
Si 2.7574600000 12.5953100000 15.7524400000 -1.5972010000 1.0660620000 -0.1551170000
Si 1.0857600000 9.9875100000 15.8601400000 0.3525060000 0.7169470000 -1.1846130000
Si 1.0637900000 4.6597400000 15.9266200000 -0.3047460000 0.8656530000 -1.3703710000
Si 1.1374300000 15.3631000000 15.7182800000 0.0930190000 -0.8329350000 -2.6907170000
Si 2.7253600000 14.4166600000 18.2324500000 -0.9224160000 0.8791150000 -2.0206870000
Si 2.4735400000 3.7663900000 18.5124900000 0.3882440000 -0.2033790000 -1.1815450000
Si 2.6731800000 9.1265100000 18.4131300000 0.3730590000 1.5427180000 -2.0721680000
Si 1.2308800000 11.7488600000 18.4528800000 0.7616550000 0.5537970000 0.3046210000
Si 1.3101400000 6.5505700000 18.4028100000 -1.0994020000 0.3715480000 -1.8646460000
Si 0.9669600000 1.1498000000 18.1640000000 1.5507810000 -0.6571670000 -0.1073980000
C 2.6960100000 1.9413400000 7.4718900000 -0.7036240000 1.4119180000 0.3176610000
C 2.4378700000 12.5057300000 7.4658000000 1.8662610000 0.7888250000 1.8786800000
C 2.6819000000 7.2288200000 7.4768300000 -0.8575840000 1.0761790000 2.3351010000
C 0.8953200000 15.1805000000 7.2272900000 1.2875990000 1.0186830000 1.0060070000
C 1.0900600000 9.9211500000 7.5326800000 -1.8302160000 -1.2146370000 -1.6163250000
C 1.0696100000 4.6600000000 7.5296700000 0.7170230000 -1.1390120000 -0.2295230000
C 2.7667500000 14.4205900000 9.8653000000 -1.1605130000 -1.5190970000 -0.2943760000
C 2.8256300000 3.7191900000 10.1345400000 -0.4829320000 -0.5218980000 -1.1635910000
C 2.6467600000 9.0701200000 10.0193300000 0.3890270000 -0.9194140000 -0.4736570000
C 1.0904700000 0.9774200000 9.8493900000 2.0342040000 2.1634060000 0.2170980000
C 1.3777000000 6.4436600000 10.0705900000 -1.8622980000 -0.6834390000 -0.0955480000
C 1.2861400000 11.5857800000 9.9655600000 -1.9353860000 0.8779150000 1.0372540000
C 2.6210000000 0.2793700000 12.5001600000 -0.5006880000 -0.4107780000 -0.6829790000
C 2.7092900000 5.6020700000 12.5971100000 -0.4435190000 -0.8462920000 -0.7284000000
C 2.7165000000 10.8239000000 12.6754300000 -0.2947290000 1.0382940000 -1.0502680000
C 1.2075800000 13.4811200000 12.4282100000 -0.9932460000 1.2738470000 0.7259970000
C 1.0574000000 8.2860200000 12.5838400000 1.1167490000 -0.5876620000 0.2170910000
C 1.3023200000 2.8691700000 12.5533100000 -0.7562270000 0.8303520000 0.5978960000
C 2.6350600000 9.1906800000 15.1442300000 -0.5633360000 -0.4834370000 1.0912740000
C 2.5997000000 3.7289900000 15.2217400000 0.5719670000 1.7968080000 -0.9009890000
C 2.7381800000 14.4667200000 14.9295000000 -0.8256690000 -0.7613820000 3.9884030000
C 0.9842000000 1.1608800000 15.0795600000 1.1487390000 -0.8809890000 -0.5913070000
C 1.0572900000 6.5427200000 15.1344000000 -0.9800730000 -1.1175470000 -0.1207330000
C 1.0794100000 11.6844200000 15.0247100000 1.7601360000 1.1723250000 3.1522460000
C 1.0871600000 15.3527100000 17.5002000000 0.8058890000 -0.6315290000 1.8853180000
C 0.9759100000 4.7205300000 17.8995100000 0.5952160000 0.0815050000 0.2970400000
C 1.1063700000 10.0240800000 17.7349800000 0.7907550000 -0.0075120000 0.7003330000
C 2.7911500000 12.6253200000 17.8459800000 -0.6666680000 -0.2389060000 -1.8630210000
C 2.8394900000 7.4737800000 17.5852000000 -0.9776750000 -1.6574350000 3.2501960000
C 2.5851100000 2.0577900000 17.5261900000 -1.2914400000 -0.0999370000 3.6107980000
H 0.9210300000 15.1211400000 6.1224900000 0.1480250000 0.2411480000 0.1530230000
H 2.6436400000 2.2360500000 6.4175200000 0.0803860000 -0.2972800000 -0.4081230000
H 1.0072000000 4.4967500000 6.3603700000 0.3204720000 0.6086260000 1.9110030000
H 2.6583700000 7.2730800000 6.4238300000 0.1356350000 -0.2743480000 -1.6825660000
H 0.9580700000 9.9107400000 6.4153300000 0.3574320000 0.0592440000 0.3771210000
H 2.3652700000 12.4016200000 6.4183700000 0.2427890000 -0.0379210000 -1.8162850000
106
lattice="3.0729994770 0.0000000000 0.0000000000 0.0000000000 15.9677772520 0.0000000000 0.0000000000 0.0000000000 36.0000000000" Properties=species:S:1:pos:R:3:force:R:3 energy=-720.1685940400 virial="0.2190329708 0.3889803288 1.1240737664 0.3889803288 4.2384743171 -7.6634637528 1.1240737664 -7.6634637528 -13.4553896686"
Ga 0.9603600000 0.8430700000 23.8805800000 -0.1431270000 1.2436820000 0.1900140000
Ga 2.8753000000 3.4998000000 21.6887200000 -1.6204480000 -0.4671740000 1.8088630000
Ga 2.4518000000 1.6503500000 26.9912400000 0.5083010000 -0.7252650000 -1.3373450000
Ga 2.7727600000 4.4091000000 26.0810400000 -0.7377230000 -1.2709400000 2.4747810000
Ga 0.9836600000 5.7216400000 23.7132900000 0.3185640000 -0.3906710000 -1.5107500000
Ga 1.8725200000 8.0620500000 20.8434500000 -0.0187890000 0.7143710000 1.2196540000
Ga 1.8439500000 6.3996100000 28.7819000000 -0.0127140000 -0.1606600000 -0.7306900000
Ga 3.0563800000 7.7109300000 26.0770900000 -0.7921890000 1.1553080000 -1.0169220000
Ga 1.3998200000 9.1799200000 23.4433400000 0.4153290000 0.6975470000 1.8083830000
Ga 0.3139200000 11.3397600000 21.3163600000 -1.7040010000 0.5320500000 0.5015680000
Ga 1.7275800000 10.1751200000 28.0834400000 -1.5575550000 -1.1289110000 0.8199310000
Ga 2.7099700000 11.5275700000 25.5271300000 0.8512780000 0.0737070000 -1.8719880000
Ga 1.3837500000 13.6740900000 23.4363300000 0.5539630000 0.5109420000 -0.1427490000
Ga 2.7342400000 0.2454100000 20.8529400000 -1.2879900000 0.1974750000 1.9406250000
Ga 2.4373700000 12.3908400000 29.3293600000 0.3126780000 0.2796270000 -0.0320040000
Ga 0.7287200000 14.7122200000 26.5601400000 -2.0376990000 2.2757600000 -0.8355910000
O 2.4415100000 0.0231200000 22.7286900000 0.4437360000 0.2377000000 -2.0713630000
O 0.0262800000 3.7319600000 19.9470600000 -0.3329640000 1.2487400000 -1.2011120000
O 1.2031700000 2.5925500000 22.4252600000 0.8118720000 0.4308140000 -0.5259180000
O 2.4739000000 1.5593200000 24.8957700000 0.3734550000 0.1104790000 1.0445630000
O 0.9754300000 0.6242800000 27.4001400000 -1.0598750000 -1.4811570000 -0.4615110000
O 1.0631700000 6.8621100000 19.8596600000 0.2263290000 -3.2363480000 -0.9706950000
O 2.5127100000 5.1970700000 22.6924800000 0.7966240000 0.5510180000 0.4509910000
O 1.1880400000 4.3287800000 25.0307300000 0.3647840000 0.5229140000 -0.0760970000
O 2.7566400000 3.2579000000 27.7014500000 -0.0711960000 1.5543840000 -2.0056750000
O 0.0292900000 9.0249100000 19.9666600000 -0.4604440000 2.0225820000 -2.5694420000
O 0.6207800000 8.0473300000 22.2545600000 -0.3725600000 -0.9095100000 -0.1776120000
O 1.4088800000 7.2758300000 24.6829600000 -0.0259280000 0.3489020000 0.4726970000
O 2.8919600000 6.1021600000 26.9465700000 -0.2171700000 -0.8207820000 0.8692240000
O 1.1984400000 11.7840500000 19.8465300000 0.4203230000 0.7637200000 1.1101700000
O 1.8173800000 10.4143400000 21.8986300000 0.3777900000 -0.2249690000 1.6219950000
O 2.9316400000 9.6670900000 24.6468600000 -0.3679970000 -0.2115920000 -0.7063340000
O 1.3539200000 8.4785800000 27.1272700000 1.3522510000 0.3797040000 0.1649910000
O 2.5956100000 14.8269100000 19.7937900000 -0.0510880000 -1.7487820000 0.2272710000
O 2.9836500000 13.0161100000 22.4938600000 -0.2958630000 0.1534260000 -0.2321320000
O 1.2418600000 12.1838500000 24.6584200000 -0.3561740000 -0.6145050000 1.0054310000
O 0.0400000000 11.1076600000 27.2235800000 0.7245090000 0.0048200000 -0.2671250000
O 1.0509700000 1.1311100000 20.0354000000 1.6372590000 0.2398810000 0.8697790000
O 1.0101400000 15.0814400000 24.7000800000 -0.1994590000 -1.4985590000 -0.2538090000
O 2.1687000000 13.8224100000 26.8309000000 3.2311650000 -1.3891540000 1.3735900000
Si 2.7379700000 14.5319700000 8.1873600000 -1.6753080000 -0.7095610000 1.3804460000
Si 2.7723800000 9.3486000000 7.9862000000 -1.7877810000 -1.8947190000 -1.6596230000
Si 2.4341200000 3.7807800000 8.2707400000 2.2679210000 2.2648030000 -0.4541890000
Si 1.1236300000 1.2325800000 8.1313300000 -0.9167420000 -0.7611760000 1.0011400000
Si 1.1829900000 11.8123600000 8.2341300000 0.2402550000 2.3793970000 -2.5422560000
Si 1.1377000000 6.5713500000 8.1065700000 -0.7291570000 -0.4333160000 -0.7925840000
Si 2.6893800000 0.3391700000 10.7676400000 -0.5389440000 -0.5742910000 -0.5011360000
Si 2.6748900000 5.6809300000 10.5766400000 -1.2183580000 -0.3922260000 0.9693900000
Si 2.7642500000 10.9672700000 10.5298100000 -0.2436030000 -2.5674340000 3.4836970000
Si 1.1154700000 13.5888100000 10.6383500000 1.6316050000 -0.0927700000 0.0891350000
Si 1.1010700000 8.2741200000 10.5662300000 0.9679460000 0.9091530000 -0.2462520000
Si 0.9802000000 3.0190700000 10.7496700000 0.5296040000 -1.4812200000 -0.3370370000
Si 2.6841100000 14.3878500000 13.1402600000 -0.2205440000 2.1345580000 -0.0327640000
Si 2.8222700000 3.8997600000 13.2033900000 -1.3079810000 -1.2950230000 0.1462770000
Si 2.5301800000 9.0427000000 13.1864600000 1.9514670000 2.0058300000 -0.6716250000
Si 1.0683900000 1.2881700000 13.2700800000 -0.1396360000 -2.1229570000 -0.0166680000
Si 1.0273200000 6.4097800000 13.1232500000 1.5911350000 1.7318990000 -1.2940460000
Si 1.1128600000 11.8441500000 13.1166500000 0.0107360000 -1.7258820000 0.3246630000
Si 2.8027000000 2.1544700000 15.8179400000 -0.0650870000 -1.2432210000 -0.5368200000
Si 2.6747000000 7.4317500000 15.7107100000 -0.2846710000 -1.6952590000 -1.7040510000
Si 2.6066000000 12.6669400000 15.7582300000 1.0024550000 -0.4187030000 -1.3170690000
Si 1.0979400000 10.0154800000 15.7726800000 0.0406490000 0.5175200000 -1.4119430000
Si 1.2590100000 4.8770000000 15.7513600000 0.6580500000 -1.9528820000 -1.9957410000
Si 1.3289700000 15.4282400000 15.5950100000 -1.0107720000 -1.6801140000 0.7848640000
Si 2.5505000000 14.5316900000 18.2039900000 1.5557960000 1.3920700000 -1.2208430000
Si 2.8945400000 3.9947400000 18.3234700000 0.4261330000 -1.5674930000 -0.0850410000
Si 2.8066600000 9.1657300000 18.2123100000 -0.9588630000 -0.2886140000 1.1021650000
Si 1.1301800000 11.8944500000 18.2531900000 -0.7299240000 -1.1160870000 -0.3856650000
Si 1.2938700000 6.4909000000 18.2819100000 -0.9980060000 2.7414680000 -0.9904860000
Si 1.2734200000 1.2892700000 18.4013000000 0.3636200000 -0.5317690000 -3.4545890000
C 2.6143800000 2.1221400000 7.5787700000 0.1817230000 -1.1307150000 -1.4528750000
C 2.7357400000 12.7911100000 7.5580400000 -0.0632630000 -0.7803410000 0.5197880000
C 2.6502900000 7.4840000000 7.4717500000 0.9862400000 -0.4018650000 -0.8473480000
C 1.1272300000 15.4045800000 7.6850100000 1.6623740000 0.2723710000 -1.6469170000
C 1.1400300000 10.2251700000 7.2724000000 1.4193470000 -0.3385840000 1.9619250000
C 1.0244600000 4.7130400000 7.6173700000 -1.3015560000 0.7528160000 2.3776950000
C 2.7145300000 14.4468700000 10.0775800000 -1.2683760000 1.0379660000 -0.3171950000
C 2.4854100000 3.8934200000 10.1690800000 0.8800290000 -0.4941880000 -1.7076120000
C 2.7212700000 9.1811700000 9.8706300000 -0.8102500000 0.6881770000 0.2582000000
C 1.1325000000 1.1781600000 10.0255000000 -0.2985510000 1.0250470000 0.8604930000
C 1.0983700000 6.5346600000 9.9585000000 0.9359550000 0.0441880000 0.3051690000
C 1.2374200000 11.7630200000 10.0632000000 -0.7517260000 1.9378800000 -1.1255630000
C 2.5468700000 0.3447200000 12.6899500000 1.6447440000 -0.8963260000 -1.0940270000
C 2.6294900000 5.5951800000 12.4777300000 -0.5776500000 -0.0082600000 0.0411630000
C 2.6494700000 10.8755200000 12.5465000000 0.0713400000 0.4320530000 -0.9105480000
C 1.1372900000 13.6091300000 12.4751900000 0.0797560000 -0.8880310000 0.5808220000
C 1.0920600000 8.2262400000 12.4389800000 -1.3918180000 -0.6055240000 1.0866820000
C 1.2158600000 2.9308900000 12.5825800000 -0.1070300000 2.0671650000 0.4724280000
C 2.6144200000 9.1346600000 15.1019900000 0.2510360000 0.3561380000 -0.2825790000
C 2.8761000000 3.8763900000 15.1088600000 -1.2793250000 0.9783200000 0.4503920000
C 2.8180600000 14.3611300000 14.9681600000 -0.4424630000 1.5816120000 1.7515660000
C 1.2349900000 1.2035100000 15.1177700000 0.0595040000 1.8728000000 0.3870440000
C 1.0987200000 6.4944500000 14.9095600000 0.6056860000 1.3527580000 3.1284640000
C 1.1135100000 11.7355600000 15.0109500000 -0.3554250000 1.0652440000 1.7456830000
C 1.1674400000 15.5303000000 17.4794300000 -0.5765160000 -1.2801950000 1.2533090000
C 1.3768600000 4.8412800000 17.5680400000 -0.6712620000 -0.9588580000 2.6517680000
C 1.1520000000 10.1248700000 17.6531500000 1.4608060000 -0.7581980000 -0.2250390000
C 2.6356900000 12.6972500000 17.6989500000 0.5295780000 1.6906030000 -1.2497730000
C 2.7450800000 7.3927400000 17.5335500000 0.7906100000 0.0668270000 1.4800680000
C 2.9045600000 2.2010900000 17.7298800000 -1.7892520000 -0.0287990000 0.4359120000
H 1.1922400000 15.1784300000 6.5954800000 -0.1297230000 0.5004090000 -0.1087740000
H 2.4423400000 2.1251300000 6.4468600000 0.5683840000 0.2468250000 0.9820070000
H 0.8149300000 4.7418800000 6.5942100000 0.0493480000 -0.3660990000 -2.1897500000
H 2.7857800000 7.2992600000 6.3387400000 -0.4573760000 0.4642840000 1.1639650000
H 1.1643600000 10.6991500000 6.2770800000 -0.0604170000 -0.7668220000 -0.0758200000
H 2.8354400000 12.7960100000 6.4334500000 -0.2537310000 -0.2332380000 0.7302700000
106
lattice="3.0729994770 0.0000000000 0.0000000000 0.0000000000 15.9677772520 0.0000000000 0.0000000000 0.0000000000 36.0000000000" Properties=species:S:1:pos:R:3:force:R:3 energy=-720.3715077500 virial="4.1850997771 0.1451178880 -8.6201260307 0.1451178880 3.9141917369 -5.9215198723 -8.6201260307 -5.9215198723 -17.2582457094"
Ga 0.7573300000 0.8398600000 23.7952400000 1.4168670000 0.2576170000 0.9353350000
Ga 2.9422700000 3.4208800000 21.7069300000 0.0277320000 0.5591170000 -1.7526170000
Ga 2.5267500000 1.6595800000 26.9028200000 -1.9715130000 0.3285760000 -0.5859660000
Ga 2.7099300000 4.3470700000 26.1334800000 -0.5652260000 0.9511910000 -0.7085930000
Ga 0.9474400000 5.6362200000 23.6151100000 1.8284970000 1.5533990000 -0.4805000000
Ga 1.8806200000 7.9856400000 20.8177200000 1.4378000000 -0.5936720000 -2.1651090000
Ga 1.7523000000 6.3711700000 28.8287400000 0.0896610000 -0.1214790000 -1.0292670000
Ga 0.0061100000 7.6487800000 26.0894000000 -0.5077290000 1.1927880000 -0.4405490000
Ga 1.4650200000 9.2268100000 23.3505700000 -0.5441050000 -1.3001460000 0.1853980000
Ga 0.1963900000 11.4125800000 21.2645800000 -1.2275940000 -0.2084080000 1.1243030000
Ga 1.6676100000 10.1938800000 28.0845700000 -0.7709110000 0.0514330000 0.6946570000
Ga 2.8478800000 11.4589700000 25.4712500000 -1.2022880000 -0.5445670000 -1.0508540000
Ga 1.3670500000 13.6581500000 23.4741600000 1.0852190000 -0.9901300000 -0.4379050000
Ga 2.7008000000 0.2143900000 20.9212100000 0.1237400000 0.0656140000 -3.2493190000
Ga 2.4004400000 12.4082400000 29.4961600000 0.2827280000 0.1061600000 -0.4607970000
Ga 0.7309200000 14.7864500000 26.5439600000 1.4556530000 -3.0530990000 -0.5454580000
O 2.5014800000 0.0689800000 22.6398200000 -0.3137330000 0.2487150000 1.8736830000
O 3.0400500000 3.6631500000 19.8493000000 -0.2871150000 0.0280350000 1.6869190000
O 1.4248000000 2.5220800000 22.2839100000 -1.2542640000 0.3119830000 0.9268730000
O 2.5002500000 1.5113200000 25.0132500000 -0.7213020000 0.1838790000 -1.0186270000
O 0.7465100000 0.4858700000 27.1459400000 2.4845220000 1.5086410000 1.7609540000
O 1.0650600000 6.6546700000 19.7938300000 0.6844240000 0.6178080000 0.2379730000
O 2.6204300000 5.2504200000 22.5133500000 -0.8599610000 -0.3916970000 0.8890220000
O 1.0955700000 4.3028100000 24.9671800000 0.6158220000 0.2423600000 0.6587240000
O 2.6046900000 3.3752200000 27.6279700000 -0.3405230000 -2.0224580000 -0.2941300000
O 3.0231600000 9.1397500000 19.7864400000 -0.4001170000 0.0554250000 2.9781610000
O 0.7002500000 7.8984000000 22.1369900000 -0.7380780000 0.4003530000 1.4487040000
O 1.3444700000 7.3191500000 24.7435300000 0.2886670000 -1.6841540000 -0.3266680000
O 2.9487900000 5.9965300000 27.0309200000 -0.2110740000 0.6167750000 0.7256240000
O 1.2671600000 11.9245300000 19.9561400000 0.9142920000 0.2128030000 -0.4632790000
O 1.8037800000 10.4704700000 22.0112900000 -0.4973870000 1.0119520000 -0.6884550000
O 2.9991900000 9.5214700000 24.2931900000 -0.3693200000 1.4494560000 2.1026870000
O 1.5452900000 8.6103800000 27.0594800000 0.2425700000 -1.5687320000 -0.5191540000
O 2.5055700000 14.6382500000 19.9525200000 0.5397370000 0.3537460000 -0.2051610000
O 2.9548100000 13.0886400000 22.5910100000 -0.6874610000 -0.3721420000 -0.8037940000
O 1.2507800000 12.0678300000 24.6901400000 1.8384920000 0.3968310000 0.0620710000
O 0.0524400000 11.0434700000 27.1811800000 0.3474350000 -0.3627380000 0.2132040000
O 1.1835800000 1.1062300000 20.0812000000 0.0118800000 -0.2666690000 -1.3610110000
O 0.9053500000 14.9598400000 24.6333800000 0.0032250000 0.7294390000 0.6184400000
O 2.4074400000 13.7468500000 27.0692000000 -1.3863990000 0.9930440000 -0.3446220000
Si 2.7055600000 14.4773900000 8.1959100000 0.0190890000 1.3623250000 -1.3180260000
Si 2.6502400000 9.2806800000 7.9234600000 1.5372450000 -0.3327610000 2.7374110000
Si 2.5403000000 3.9852500000 8.2811700000 -1.3167550000 -2.2310680000 0.1817220000
Si 0.9463600000 1.2064800000 8.2326600000 1.3400060000 0.9800410000 -0.6529880000
Si 1.0985300000 11.9488200000 8.2011700000 -0.3309990000 -2.9346810000 0.7360740000
Si 1.0829600000 6.6011700000 8.1251100000 0.8339050000 0.7764230000 0.8207510000
Si 2.6994200000 0.3351900000 10.6037600000 -1.1595220000 0.2873460000 1.6865390000
Si 2.5794700000 5.6161100000 10.7413100000 1.5647350000 0.5385080000 -1.3887280000
Si 2.8725000000 10.8367500000 10.7026200000 -1.1027350000 3.0146180000 -0.3367470000
Si 1.1423500000 13.5445200000 10.6292000000 -0.0973040000 0.8938900000 1.6167120000
Si 1.2845500000 8.3734200000 10.6509400000 -1.9456860000 -1.0409170000 -0.5400700000
Si 1.1761800000 2.9564400000 10.8273900000 0.1693420000 1.9021640000 -0.5877150000
Si 2.7304200000 14.5453800000 13.1089600000 0.4030770000 -1.3085320000 0.6347860000
Si 2.8793800000 3.9536100000 13.2335200000 -1.2577520000 0.4195810000 1.6278520000
Si 2.5216900000 9.2027100000 13.1962400000 -0.1276660000 -0.0212030000 -0.3845960000
Si 1.0885600000 1.2523900000 13.2642400000 1.8007710000 0.3824680000 -0.2157870000
Si 1.0712000000 6.6056100000 13.0593600000 -0.3428240000 -0.6120590000 2.4666050000
Si 1.2621900000 11.7802600000 13.3354100000 -0.7465730000 0.9283450000 -1.7077650000
Si 2.7078800000 2.1174800000 15.8405900000 0.4968680000 0.5718830000 -1.2991360000
Si 2.6840100000 7.4101600000 15.6018700000 0.5256280000 1.5245590000 1.6808290000
Si 2.7170300000 12.7121100000 15.7545300000 -0.7385300000 1.5721910000 1.7053390000
Si 0.9929100000 10.0229000000 15.6743400000 1.5142160000 0.6651500000 1.7029300000
Si 1.2481600000 4.7791800000 15.6840800000 -1.5479630000 1.6346190000 2.3706900000
Si 1.2840200000 15.3743800000 15.6676900000 -0.7768390000 1.2303920000 1.4592670000
Si 2.6326300000 14.6901700000 18.2989400000 -0.3725250000 -2.3019190000 0.8372250000
Si 2.8537800000 3.8635200000 18.2408000000 -0.9878250000 1.2891260000 1.7217940000
Si 2.9402200000 9.1958400000 18.1982300000 -0.6770440000 1.3459730000 -2.3900000000
Si 1.2270300000 11.9416500000 18.2922000000 0.5144150000 0.0898890000 -0.8052740000
Si 1.1744000000 6.6711700000 18.1463400000 0.1560300000 -1.8727390000 0.7833510000
Si 1.3274500000 1.2211200000 18.2574700000 -2.4314620000 -0.7364220000 1.4371150000
C 2.4928600000 2.1290100000 7.6381400000 0.2533930000 0.7977870000 -0.1377500000
C 2.6024100000 12.6943600000 7.6825000000 1.1103680000 1.6518880000 -3.0806580000
C 2.6818300000 7.4902300000 7.4807000000 -1.7303130000 -0.1941260000 -1.8010800000
C 1.2024900000 15.4021800000 7.5437700000 -1.2894200000 0.0613510000 1.0212410000
C 1.1779700000 10.1947200000 7.4733900000 -1.6667310000 -0.1285560000 -0.4590570000
C 0.8956200000 4.8597400000 7.6514200000 3.1085640000 -1.5561240000 -1.9906110000
C 2.6272300000 14.5258000000 10.0484900000 1.0523050000 -0.4369180000 -0.2143750000
C 2.7092400000 3.8340300000 10.1255300000 -0.5609490000 0.5704660000 0.8155050000
C 2.7706600000 9.2129100000 9.9273200000 0.4709140000 -0.7970790000 -0.2366880000
C 1.0987400000 1.3029800000 10.1138800000 0.8163610000 -2.2189480000 -0.9967230000
C 1.1433700000 6.5604800000 10.0672900000 -0.8520870000 -0.1044270000 -0.5466710000
C 1.2715500000 11.8310500000 10.0361800000 -0.2911160000 -1.2645790000 0.5270600000
C 2.7053100000 0.3732300000 12.5074600000 -0.9331560000 0.0019360000 0.9953870000
C 2.5823500000 5.6900200000 12.5753800000 1.2024470000 -0.1454050000 -0.0191770000
C 2.7854900000 10.9303700000 12.5975600000 -0.3361930000 0.1229310000 0.2386520000
C 1.2189300000 13.5168300000 12.5385400000 -0.4282860000 1.5427180000 0.3850230000
C 0.9235500000 8.3387500000 12.5512900000 2.3980030000 0.4907800000 -1.1346720000
C 1.3391200000 3.1198900000 12.7249000000 -1.2617650000 -2.2674660000 -1.7170440000
C 2.5345800000 9.2246300000 15.0138400000 0.4181780000 -0.8192380000 0.4570990000
C 2.7225100000 3.9443500000 15.1550500000 1.8057150000 -1.3420580000 -1.0728230000
C 2.8253600000 14.5263900000 15.0616900000 -0.8346790000 -0.6711070000 -0.7882390000
C 1.1848800000 1.2979600000 15.1643300000 -0.2012230000 -1.5136670000 -0.6983040000
C 1.1827200000 6.6216400000 15.0475600000 -1.1112240000 -1.9304620000 -1.6911360000
C 1.1169100000 11.8271000000 15.2156600000 1.2454220000 -0.1108130000 -1.6090020000
C 1.0692700000 15.4264100000 17.6326900000 1.9700180000 1.4756260000 -1.0338230000
C 1.2539900000 4.8075000000 17.7109400000 0.9456440000 -0.0059510000 -2.2529570000
C 1.3960600000 10.1122800000 17.5871100000 -1.4681260000 0.5888650000 0.2205020000
C 2.7811500000 12.9080600000 17.7316100000 -0.7324950000 -1.5939000000 -1.0092520000
C 2.7130800000 7.5239000000 17.5203600000 0.3407970000 -1.0808130000 -1.0329470000
C 2.7993500000 2.0653200000 17.6899400000 0.8361230000 0.7105390000 -0.0680110000
H 1.1351700000 15.6008400000 6.4582500000 0.1085530000 -0.3990980000 0.0311070000
H 2.6415300000 2.2028600000 6.5334100000 -0.3507000000 -0.2134080000 0.2221630000
H 1.1748400000 4.5335900000 6.5578900000 -0.8845780000 0.9388980000 1.2329540000
H 2.5044000000 7.4315900000 6.3140800000 0.6580310000 -0.1223840000 1.6899120000
H 1.1238000000 10.1087800000 6.3781000000 0.0975540000 0.5430950000 -0.4212920000
H 2.5532800000 12.5873400000 6.5191600000 0.3164630000 0.4554020000 1.4046340000
106
lattice="3.0729994770 0.0000000000 0.0000000000 0.0000000000 15.9677772520 0.0000000000 0.0000000000 0.0000000000 36.0000000000" Properties=species:S:1:pos:R:3:force:R:3 energy=-719.5072636600 virial="6.5620143524 -0.5619156025 -7.8344475095 -0.5619156025 4.9005016369 -3.2212598859 -7.8344475095 -3.2212598859 -7.6973341488"
Ga 0.7245500000 0.8426100000 23.7823200000 1.5972780000 0.3489030000 1.4506580000
Ga 2.9527300000 3.4051300000 21.7036600000 0.2281550000 1.0404370000 -1.6167580000
Ga 2.5280400000 1.6647700000 26.8782800000 -1.4307250000 -0.5708770000 -0.0311650000
Ga 2.6909100000 4.3342200000 26.1493600000 -0.1089430000 2.2259650000 -2.2360190000
Ga 0.9500300000 5.6264000000 23.5893600000 2.0502160000 1.7807750000 0.0857980000
Ga 1.8929400000 7.9697100000 20.7999100000 0.7779310000 -0.8320520000 -1.3231230000
Ga 1.7344500000 6.3645000000 28.8314000000 0.0826320000 -0.0917260000 -0.9572180000
Ga 0.0069400000 7.6463400000 26.0875400000 -0.3467330000 0.8059130000 -0.3253100000
Ga 1.4764700000 9.2312300000 23.3352400000 -0.8828030000 -1.6036130000 0.2353480000
Ga 0.1622600000 11.4265600000 21.2636400000 -0.6791190000 -0.1231050000 0.5753590000
Ga 1.6488100000 10.1953000000 28.0909500000 -0.4642270000 -0.0405230000 0.4470680000
Ga 2.8699500000 11.4454500000 25.4458000000 -0.9068340000 -1.2014260000 0.0343070000
Ga 1.3737700000 13.6542100000 23.4806000000 0.3957550000 -1.4576670000 -0.5320860000
Ga 2.6910600000 0.2091800000 20.9259000000 0.4303690000 -0.0404050000 -3.8086660000
Ga 2.3943100000 12.4131300000 29.5271200000 0.2858860000 0.0893940000 -0.5156370000
Ga 0.7377500000 14.7920800000 26.5354800000 1.4054540000 -4.0212480000 -0.1465940000
O 2.5108800000 0.0884100000 22.6337900000 -0.4994170000 0.0554920000 2.0738490000
O 3.0179000000 3.6605300000 19.8615600000 -0.2525100000 0.0095960000 1.1631480000
O 1.4508000000 2.5231600000 22.2708700000 -1.5971870000 0.0698790000 1.0365160000
O 2.4870600000 1.5096300000 25.0308100000 -0.6208210000 0.0210310000 -1.7720120000
O 0.7711900000 0.4557000000 27.1298800000 1.8799270000 3.0788340000 1.8974510000
O 1.0813100000 6.6034300000 19.8043900000 0.6082060000 1.0085310000 -0.8125860000
O 2.6287200000 5.2644200000 22.5100000000 -1.1019360000 -0.8383200000 0.4752850000
O 1.1040300000 4.3088500000 24.9624700000 0.2713400000 0.1423470000 0.8293890000
O 2.5654700000 3.3746300000 27.5744900000 -0.3973080000 -2.8704390000 1.1401300000
O 2.9914000000 9.1751000000 19.8015000000 -0.2296670000 0.0776350000 1.4465400000