69
lattice="3.0729999540 0.0000000000 0.0000000000 1.5365000130 7.9838884020 0.0000000000 0.0000000000 0.0000000000 43.8005676270" Properties=species:S:1:pos:R:3:force:R:3 energy=-474.0230157200 virial="-3.8451219717 0.0032999812 0.1058945180 0.0032999812 -17.0897708209 -0.4670747751 0.1058945180 -0.4670747751 0.8475585806"
Ga 1.5294800000 4.7727500000 26.4301100000 -0.0004690000 -0.0003330000 0.0059780000
Ga 3.0658100000 7.7597900000 26.4406500000 0.0018660000 -0.0018800000 0.0027590000
Ga 3.0654400000 2.3150400000 24.6495300000 0.0009090000 0.0033150000 0.0031230000
Ga 1.5359500000 6.5635900000 23.5971700000 -0.0010800000 0.0075650000 0.0030210000
Ga 3.0680900000 0.3769300000 30.9935200000 0.0005170000 -0.0027610000 0.0028670000
Ga 1.5311900000 3.2692700000 31.0305800000 0.0008950000 -0.0012180000 0.0019660000
Ga 3.0683700000 5.8747000000 29.3104100000 -0.0006620000 0.0014660000 0.0005180000
Ga 3.0667600000 2.2141400000 28.1209300000 0.0034270000 -0.0030720000 0.0031350000
Ga 3.0684600000 3.9932500000 35.4113600000 -0.0000180000 -0.0026070000 0.0083980000
Ga 1.5310600000 6.8084000000 35.8284100000 0.0016370000 -0.0020410000 0.0058550000
Ga 1.5327100000 1.3308700000 33.9431900000 -0.0023610000 -0.0009370000 0.0012630000
Ga 3.0680600000 5.7861700000 32.6656500000 0.0000200000 -0.0051820000 -0.0027670000
O 3.0726500000 7.4389000000 22.8493500000 -0.0012170000 0.0005890000 0.0028180000
O 1.5293800000 1.3763700000 25.2325600000 0.0013290000 -0.0045650000 -0.0009880000
O 3.0759500000 2.1934300000 22.8613300000 -0.0020500000 0.0013700000 0.0081570000
O 1.5305000000 6.7315400000 25.4227400000 0.0049100000 -0.0016090000 0.0002250000
O 1.5383900000 4.9296900000 22.8315400000 -0.0048490000 -0.0092510000 0.0062230000
O 3.0657600000 4.0545300000 25.4396700000 0.0045190000 0.0014440000 -0.0070810000
O 1.5302600000 3.1486800000 27.6412500000 -0.0052440000 0.0051600000 0.0012030000
O 1.5319700000 4.9456700000 29.8365700000 -0.0054280000 -0.0024400000 0.0035410000
O 3.0668100000 5.8310800000 27.4094300000 0.0023910000 -0.0046920000 -0.0069750000
O 3.0674200000 2.2540000000 30.0279800000 0.0034240000 -0.0029400000 -0.0028240000
O 3.0657300000 0.4617800000 27.4507900000 0.0032900000 -0.0029840000 0.0054270000
O 3.0679900000 7.6259800000 29.9995100000 0.0003770000 0.0004360000 -0.0096000000
O 1.5316400000 6.7378400000 32.1959000000 0.0023950000 0.0062980000 -0.0007610000
O 3.0691000000 0.5016000000 34.5737800000 -0.0004300000 -0.0067870000 0.0025150000
O 1.5316700000 1.3669200000 32.0410400000 0.0011800000 0.0052480000 0.0007230000
O 3.0691100000 5.7273400000 34.5419900000 -0.0028250000 0.0007220000 0.0002760000
O 3.0678000000 4.0113300000 32.0182100000 0.0010450000 -0.0079760000 0.0063640000
O 1.5319000000 3.0568600000 34.7138600000 0.0030250000 0.0080090000 -0.0058830000
Si 1.5377200000 4.8821000000 11.1542300000 0.0648610000 -0.2066860000 -0.2881980000
Si 3.0748400000 2.1972200000 11.1500400000 0.0692670000 0.0742860000 -0.4618340000
Si 3.0628100000 7.5298200000 11.1476600000 0.2229230000 0.0243620000 -0.2285100000
Si 1.5471200000 3.1160000000 8.6263500000 -0.1615770000 -0.9809240000 -0.2290040000
Si 3.0680700000 0.4267300000 8.6045600000 0.1073860000 0.3113560000 0.4628240000
Si 3.0655200000 5.7456400000 8.6166500000 0.1562340000 0.4222150000 0.2308550000
Si 1.5382300000 4.8539000000 16.1761200000 -0.0837950000 0.2964460000 -0.2147760000
Si 3.0735700000 2.2058000000 16.1723000000 0.0324210000 0.2248280000 0.0161430000
Si 3.0752600000 7.5383200000 16.1613800000 0.1279780000 -0.1832100000 0.2150740000
Si 1.5366100000 4.8608900000 21.1846800000 0.0033320000 0.0001300000 -0.0013900000
Si 3.0728800000 2.2314200000 21.2587000000 -0.0001960000 -0.0139120000 -0.0108860000
Si 3.0725700000 7.5222300000 21.1213400000 0.0009310000 0.0154320000 -0.0008080000
Si 3.0660800000 3.9734400000 13.6414700000 0.0277420000 -0.1358850000 0.3116310000
Si 1.5284100000 1.3126600000 13.6666800000 -0.0745070000 -0.0998780000 -0.3731950000
Si 1.5391900000 6.6415600000 13.6659800000 -0.2310460000 -0.0851800000 -0.0527930000
Si 1.5373500000 3.0934700000 18.7033400000 -0.0028620000 0.0011230000 0.0169320000
Si 3.0734900000 0.4378500000 18.6874200000 -0.0023100000 -0.0369710000 -0.0022800000
Si 3.0743800000 5.7482300000 18.6665500000 -0.0058630000 0.0370650000 -0.0121820000
C 1.5347700000 4.8662200000 8.0189100000 -0.0974810000 0.2020290000 0.1064870000
C 3.0758200000 2.1955200000 7.9960600000 0.0898520000 0.4794450000 0.8821980000
C 3.0717400000 7.5382000000 8.0290700000 -0.0544680000 -0.5539810000 -0.0789490000
C 1.5459300000 3.1017200000 10.5147400000 -0.1271990000 -0.0608860000 0.1858750000
C 3.0745500000 0.4216200000 10.5106300000 -0.1884150000 0.2254770000 -0.0468570000
C 3.0786400000 5.7629100000 10.5120600000 -0.1358710000 -0.1675480000 0.0577260000
C 1.5377100000 4.8611700000 18.0420800000 -0.0056560000 -0.0285170000 0.1609950000
C 3.0738100000 2.2079900000 18.0620900000 0.0016230000 -0.0229000000 -0.0757670000
C 3.0735000000 7.5321900000 18.0559700000 0.0108110000 0.0515750000 -0.0882220000
C 1.5317100000 4.8648600000 13.0309400000 -0.0169270000 0.0284690000 -0.0542390000
C 3.0585900000 2.1796800000 13.0190800000 0.1725390000 0.4265820000 0.2733680000
C 3.0607900000 7.5213700000 13.0247500000 0.2423030000 0.0351930000 0.2064270000
C 3.0685900000 3.9911700000 15.5452200000 0.1212400000 -0.4100740000 -0.1662520000
C 1.5399500000 1.3256700000 15.5363900000 -0.0700160000 -0.0359790000 0.3007450000
C 1.5476600000 6.6396300000 15.5543500000 -0.1962390000 0.0484620000 -0.0405680000
C 1.5364400000 3.0923800000 20.5924600000 0.0008170000 0.0056260000 -0.0094140000
C 3.0726300000 0.4441600000 20.5986400000 0.0003470000 0.0030160000 0.0098050000
C 3.0732100000 5.7515500000 20.5420700000 -0.0050820000 0.0092830000 -0.0062290000
H 1.5252900000 4.8465800000 6.9234700000 0.0257620000 0.0249750000 -0.2895620000
H 3.0769500000 2.1922300000 6.9070100000 0.0016010000 0.0491250000 -0.4770040000
H 3.0841100000 7.5123500000 6.9314800000 -0.0309790000 0.0476810000 -0.2676400000
69
lattice="3.0729999540 0.0000000000 0.0000000000 1.5365000130 7.9838884020 0.0000000000 0.0000000000 0.0000000000 43.8005676270" Properties=species:S:1:pos:R:3:force:R:3 energy=-473.9563874600 virial="-3.5124744787 0.4692881771 0.0104231113 0.4692881771 -15.5165986959 -0.8684852905 0.0104231113 -0.8684852905 -1.8718002998"
Ga 1.5294800000 4.7727500000 26.4301100000 -0.0002300000 0.0002270000 -0.0014550000
Ga 3.0658100000 7.7597900000 26.4406500000 0.0021070000 -0.0016280000 -0.0047210000
Ga 3.0654400000 2.3150400000 24.6495300000 0.0011640000 0.0023150000 -0.0070460000
Ga 1.5359500000 6.5635900000 23.5971700000 -0.0008180000 0.0036520000 -0.0083010000
Ga 3.0680900000 0.3769300000 30.9935200000 0.0007520000 -0.0025430000 -0.0012130000
Ga 1.5311900000 3.2692700000 31.0305800000 0.0011340000 -0.0009850000 -0.0021490000
Ga 3.0683700000 5.8747000000 29.3104100000 -0.0004220000 0.0008550000 -0.0054250000
Ga 3.0667600000 2.2141400000 28.1209300000 0.0036660000 -0.0038660000 -0.0034100000
Ga 3.0684600000 3.9932500000 35.4113600000 0.0002160000 -0.0031980000 0.0090940000
Ga 1.5310600000 6.8084000000 35.8284100000 0.0018720000 -0.0018800000 0.0034270000
Ga 1.5327100000 1.3308700000 33.9431900000 -0.0021270000 -0.0003940000 -0.0017910000
Ga 3.0680600000 5.7861700000 32.6656500000 0.0002550000 -0.0054550000 -0.0063110000
O 3.0726500000 7.4389000000 22.8493500000 -0.0009220000 0.0053050000 0.0080740000
O 1.5293800000 1.3763700000 25.2325600000 0.0015790000 -0.0060060000 0.0037570000
O 3.0759500000 2.1934300000 22.8613300000 -0.0016380000 -0.0036320000 0.0182530000
O 1.5305000000 6.7315400000 25.4227400000 0.0051430000 -0.0010490000 0.0073570000
O 1.5383900000 4.9296900000 22.8315400000 -0.0047010000 -0.0070330000 0.0179480000
O 3.0657600000 4.0545300000 25.4396700000 0.0047580000 0.0027100000 -0.0020810000
O 1.5302600000 3.1486800000 27.6412500000 -0.0050060000 0.0037480000 0.0050190000
O 1.5319700000 4.9456700000 29.8365700000 -0.0051920000 -0.0030910000 0.0063700000
O 3.0668100000 5.8310800000 27.4094300000 0.0026310000 -0.0047300000 -0.0011560000
O 3.0674200000 2.2540000000 30.0279800000 0.0036620000 -0.0028990000 0.0014310000
O 3.0657300000 0.4617800000 27.4507900000 0.0035300000 -0.0015000000 0.0096950000
O 3.0679900000 7.6259800000 29.9995100000 0.0006140000 0.0011450000 -0.0065900000
O 1.5316400000 6.7378400000 32.1959000000 0.0026330000 0.0054980000 0.0013840000
O 3.0691000000 0.5016000000 34.5737800000 -0.0001910000 -0.0077730000 0.0042690000
O 1.5316700000 1.3669200000 32.0410400000 0.0014200000 0.0050370000 0.0037580000
O 3.0691100000 5.7273400000 34.5419900000 -0.0025880000 0.0018220000 0.0032950000
O 3.0678000000 4.0113300000 32.0182100000 0.0012830000 -0.0071960000 0.0086260000
O 1.5319000000 3.0568600000 34.7138600000 0.0032610000 0.0073720000 -0.0061400000
Si 1.5413500000 4.8695800000 11.1392900000 -0.3023010000 -0.1823210000 0.1851410000
Si 3.0714800000 2.2054100000 11.1428300000 -0.3414890000 -0.2060480000 -0.0019510000
Si 3.0503600000 7.5227600000 11.1340900000 0.5675540000 0.0605440000 0.2350430000
Si 1.5382700000 3.1182500000 8.6261000000 -0.3414150000 -0.9164010000 0.0322560000
Si 3.0700200000 0.4362100000 8.6270700000 0.1104490000 -0.5448610000 0.0022610000
Si 3.0766700000 5.7558000000 8.6424500000 -0.2024880000 0.0660320000 -0.4544110000
Si 1.5254000000 4.8668600000 16.1556500000 0.6471440000 -0.0927550000 0.3227240000
Si 3.0791300000 2.1967100000 16.1714000000 0.0831010000 0.2564800000 0.3666020000
Si 3.0707600000 7.5398200000 16.1792400000 0.1400850000 -0.3059630000 -0.1352140000
Si 1.5366100000 4.8608900000 21.1846800000 0.0037780000 0.0000570000 -0.0144290000
Si 3.0728800000 2.2314200000 21.2587000000 -0.0003540000 0.0072520000 -0.0258880000
Si 3.0725700000 7.5222300000 21.1213400000 0.0009320000 -0.0067460000 0.0061250000
Si 3.0602000000 3.9770200000 13.6478300000 0.2806650000 -0.1683080000 0.4870160000
Si 1.5240200000 1.3152500000 13.6548500000 0.3816690000 -0.0067890000 0.2861990000
Si 1.5608300000 6.6439600000 13.6437000000 -0.7593610000 -0.2147250000 0.4828280000
Si 1.5373500000 3.0934700000 18.7033400000 -0.0032080000 0.0092340000 -0.0358110000
Si 3.0734900000 0.4378500000 18.6874200000 -0.0037820000 0.0479400000 0.0428290000
Si 3.0743800000 5.7482300000 18.6665500000 -0.0128180000 -0.0525050000 -0.0107860000
C 1.5305000000 4.8725300000 8.0408300000 0.2278930000 0.0785970000 -0.9262200000
C 3.0573000000 2.1825400000 8.0391600000 0.3034680000 0.9248210000 -0.8393630000
C 3.0769800000 7.5152900000 8.0251600000 -0.1379310000 0.3192740000 -0.2334050000
C 1.5099200000 3.0893900000 10.5171300000 0.5420250000 0.1857130000 -0.0243440000
C 3.0818200000 0.4176500000 10.5146500000 -0.5805780000 0.3077800000 0.0071220000
C 3.0632300000 5.7534300000 10.5045000000 0.2338720000 -0.0494450000 0.4384830000
C 1.5377100000 4.8611700000 18.0420800000 -0.0191710000 0.0556270000 -0.0738330000
C 3.0738100000 2.2079900000 18.0620900000 0.0112280000 -0.0541450000 -0.0310400000
C 3.0735000000 7.5321900000 18.0559700000 0.0036960000 0.0041080000 0.0796730000
C 1.5321400000 4.8549000000 13.0314400000 -0.0397910000 0.3252590000 -0.3368770000
C 3.0816100000 2.2003000000 13.0249700000 -0.4154000000 0.0085710000 -0.0628550000
C 3.0585200000 7.5234600000 13.0257300000 0.6231010000 0.0919910000 -0.2892000000
C 3.0993300000 3.9655200000 15.5565900000 -0.7366490000 0.1681140000 -0.5539400000
C 1.5469200000 1.3222500000 15.5653600000 -0.1487040000 -0.1196750000 -0.5740930000
C 1.5409900000 6.6442800000 15.5471100000 -0.0822600000 0.0969940000 -0.1557530000
C 1.5364400000 3.0923800000 20.5924600000 0.0033500000 0.0057550000 0.0066660000
C 3.0726300000 0.4441600000 20.5986400000 -0.0004970000 -0.0110030000 -0.0017530000
C 3.0732100000 5.7515500000 20.5420700000 -0.0065310000 0.0258360000 0.0063090000
H 1.5482500000 4.8730900000 6.9090300000 -0.0541540000 0.0302530000 0.7421300000
H 3.0599900000 2.1992200000 6.9077100000 -0.0108500000 -0.0437010000 0.7055870000
H 3.0722200000 7.5366200000 6.9104800000 0.0178760000 -0.0756680000 0.2922020000
69
lattice="3.0729999540 0.0000000000 0.0000000000 1.5365000130 7.9838884020 0.0000000000 0.0000000000 0.0000000000 43.8005676270" Properties=species:S:1:pos:R:3:force:R:3 energy=-473.9597052300 virial="-3.2163682407 -0.4084732800 0.0538661562 -0.4084732800 -17.2795398605 -1.0089155871 0.0538661562 -1.0089155871 1.0701396281"
Ga 1.5294800000 4.7727500000 26.4301100000 -0.0004790000 -0.0004140000 0.0039950000
Ga 3.0658100000 7.7597900000 26.4406500000 0.0018550000 -0.0019570000 0.0011490000
Ga 3.0654400000 2.3150400000 24.6495300000 0.0008910000 0.0035590000 0.0015270000
Ga 1.5359500000 6.5635900000 23.5971700000 -0.0010830000 0.0027160000 -0.0000960000
Ga 3.0680900000 0.3769300000 30.9935200000 0.0005070000 -0.0027470000 0.0018350000
Ga 1.5311900000 3.2692700000 31.0305800000 0.0008810000 -0.0012230000 0.0009250000
Ga 3.0683700000 5.8747000000 29.3104100000 -0.0006730000 0.0013250000 -0.0008710000
Ga 3.0667600000 2.2141400000 28.1209300000 0.0034120000 -0.0031850000 0.0016220000
Ga 3.0684600000 3.9932500000 35.4113600000 -0.0000310000 -0.0027600000 0.0082340000
Ga 1.5310600000 6.8084000000 35.8284100000 0.0016220000 -0.0020400000 0.0050730000
Ga 1.5327100000 1.3308700000 33.9431900000 -0.0023760000 -0.0008510000 0.0004290000
Ga 3.0680600000 5.7861700000 32.6656500000 0.0000070000 -0.0052560000 -0.0036890000
O 3.0726500000 7.4389000000 22.8493500000 -0.0012690000 0.0060760000 0.0005570000
O 1.5293800000 1.3763700000 25.2325600000 0.0013050000 -0.0048220000 -0.0006630000
O 3.0759500000 2.1934300000 22.8613300000 -0.0021830000 -0.0023890000 0.0079130000
O 1.5305000000 6.7315400000 25.4227400000 0.0048930000 -0.0010800000 0.0010550000
O 1.5383900000 4.9296900000 22.8315400000 -0.0048390000 -0.0082440000 0.0131820000
O 3.0657600000 4.0545300000 25.4396700000 0.0045080000 0.0013310000 -0.0063870000
O 1.5302600000 3.1486800000 27.6412500000 -0.0052550000 0.0048110000 0.0015760000
O 1.5319700000 4.9456700000 29.8365700000 -0.0054410000 -0.0025680000 0.0036670000
O 3.0668100000 5.8310800000 27.4094300000 0.0023790000 -0.0046950000 -0.0063240000
O 3.0674200000 2.2540000000 30.0279800000 0.0034110000 -0.0029670000 -0.0024380000
O 3.0657300000 0.4617800000 27.4507900000 0.0032780000 -0.0027330000 0.0058030000
O 3.0679900000 7.6259800000 29.9995100000 0.0003640000 0.0005100000 -0.0094470000
O 1.5316400000 6.7378400000 32.1959000000 0.0023820000 0.0061360000 -0.0007710000
O 3.0691000000 0.5016000000 34.5737800000 -0.0004420000 -0.0069830000 0.0024310000
O 1.5316700000 1.3669200000 32.0410400000 0.0011680000 0.0051730000 0.0008460000
O 3.0691100000 5.7273400000 34.5419900000 -0.0028380000 0.0009030000 0.0003990000
O 3.0678000000 4.0113300000 32.0182100000 0.0010330000 -0.0078770000 0.0063770000
O 1.5319000000 3.0568600000 34.7138600000 0.0030120000 0.0078220000 -0.0063510000
Si 1.5328800000 4.8831400000 11.1581000000 -0.0569520000 -0.4387410000 -0.8569660000
Si 3.0949300000 2.2005400000 11.1449300000 -0.8030940000 -0.2289940000 -0.1027060000
Si 3.0573800000 7.5398300000 11.1309300000 0.4982210000 -0.5918350000 0.4184490000
Si 1.5386900000 3.0774300000 8.6165400000 -0.1005660000 -0.0282150000 0.1127540000
Si 3.0647800000 0.4209100000 8.6168600000 0.0997970000 0.1144000000 0.0644890000
Si 3.0669800000 5.7580700000 8.6108400000 0.1629480000 -0.4803130000 0.2069880000
Si 1.5389100000 4.8743100000 16.1597800000 -0.1188310000 -0.1829350000 0.0645330000
Si 3.0663900000 2.2035900000 16.1873800000 0.0707670000 -0.0145530000 -0.3641320000
Si 3.0756500000 7.5247500000 16.1748900000 -0.2860250000 0.2000100000 -0.1172650000
Si 1.5366100000 4.8608900000 21.1846800000 0.0030650000 0.0050460000 -0.0066590000
Si 3.0728800000 2.2314200000 21.2587000000 -0.0001150000 0.0020770000 -0.0140100000
Si 3.0725700000 7.5222300000 21.1213400000 0.0009710000 -0.0065440000 0.0038790000
Si 3.0616300000 3.9832900000 13.6590100000 0.2963600000 -0.0751260000 -0.1862830000
Si 1.5335300000 1.3090300000 13.6490700000 0.2628010000 0.0940670000 0.3598540000
Si 1.5419100000 6.6519200000 13.6511000000 0.5358120000 -0.5533730000 0.2505570000
Si 1.5373500000 3.0934700000 18.7033400000 -0.0027350000 0.0288170000 0.0044170000
Si 3.0734900000 0.4378500000 18.6874200000 -0.0003420000 -0.0141110000 0.0039030000
Si 3.0743800000 5.7482300000 18.6665500000 -0.0054400000 -0.0120810000 0.0204820000
C 1.5407300000 4.8414500000 8.0141000000 -0.1908360000 0.4911080000 0.6002090000
C 3.0728500000 2.1922500000 8.0110900000 0.0085180000 0.0052480000 0.1067200000
C 3.0664100000 7.5269000000 8.0179400000 0.0013280000 -0.0944160000 0.4524400000
C 1.5138900000 3.0681500000 10.5077800000 0.8189380000 0.5926650000 0.1156290000
C 3.0771600000 0.4003200000 10.5087900000 -0.3439480000 0.7945370000 0.0150090000
C 3.0672200000 5.7647600000 10.5096000000 0.0024270000 -0.1808340000 0.0000070000
C 1.5377100000 4.8611700000 18.0420800000 -0.0009420000 0.0372350000 -0.0439410000
C 3.0738100000 2.2079900000 18.0620900000 -0.0157050000 0.0046320000 0.1405000000
C 3.0735000000 7.5321900000 18.0559700000 0.0033560000 -0.0318720000 0.0598420000
C 1.5400500000 4.8662700000 13.0036200000 -0.1989390000 0.0957990000 0.7616740000
C 3.0807100000 2.2048000000 13.0296700000 -0.1657460000 -0.1245660000 -0.1239100000
C 3.1122600000 7.5056100000 13.0434800000 -0.8681600000 0.6547490000 -0.6895410000
C 3.0702500000 3.9795100000 15.5415000000 0.0463470000 0.0296870000 0.0515870000
C 1.5327100000 1.3137500000 15.5510700000 -0.0294660000 0.1103570000 -0.0186980000
C 1.5220900000 6.6479000000 15.5434800000 0.3683340000 -0.1308170000 0.0253090000
C 1.5364400000 3.0923800000 20.5924600000 -0.0015200000 0.0051920000 -0.0054340000
C 3.0726300000 0.4441600000 20.5986400000 -0.0002060000 0.0022760000 -0.0074340000
C 3.0732100000 5.7515500000 20.5420700000 -0.0050780000 0.0122280000 0.0079550000
H 1.5247100000 4.8576200000 6.9278600000 0.0281610000 -0.0402300000 -0.6054730000
H 3.0678300000 2.2048300000 6.9084000000 -0.0017220000 -0.0443230000 -0.0669470000
H 3.0804300000 7.5311000000 6.9335400000 -0.0217820000 0.0181760000 -0.6693450000
69
lattice="3.0729999540 0.0000000000 0.0000000000 1.5365000130 7.9838884020 0.0000000000 0.0000000000 0.0000000000 43.8005676270" Properties=species:S:1:pos:R:3:force:R:3 energy=-473.9582091300 virial="-4.5946134287 -0.8209642201 -0.4237725830 -0.8209642201 -16.2357330090 -0.2251566426 -0.4237725830 -0.2251566426 1.0871962382"
Ga 1.5294800000 4.7727500000 26.4301100000 -0.0005110000 -0.0011150000 0.0064660000
Ga 3.0658100000 7.7597900000 26.4406500000 0.0018180000 -0.0015420000 0.0037230000
Ga 3.0654400000 2.3150400000 24.6495300000 0.0008360000 0.0029190000 0.0028040000
Ga 1.5359500000 6.5635900000 23.5971700000 -0.0011790000 0.0031370000 0.0059270000
Ga 3.0680900000 0.3769300000 30.9935200000 0.0004730000 -0.0030110000 0.0029490000
Ga 1.5311900000 3.2692700000 31.0305800000 0.0008480000 -0.0015120000 0.0020550000
Ga 3.0683700000 5.8747000000 29.3104100000 -0.0007060000 0.0013250000 0.0009790000
Ga 3.0667600000 2.2141400000 28.1209300000 0.0033810000 -0.0032050000 0.0035300000
Ga 3.0684600000 3.9932500000 35.4113600000 -0.0000610000 -0.0027430000 0.0077760000
Ga 1.5310600000 6.8084000000 35.8284100000 0.0015910000 -0.0023090000 0.0057440000
Ga 1.5327100000 1.3308700000 33.9431900000 -0.0024060000 -0.0012920000 0.0011910000
Ga 3.0680600000 5.7861700000 32.6656500000 -0.0000250000 -0.0053900000 -0.0027800000
O 3.0726500000 7.4389000000 22.8493500000 -0.0012680000 0.0055820000 -0.0054530000
O 1.5293800000 1.3763700000 25.2325600000 0.0012650000 -0.0051930000 -0.0015110000
O 3.0759500000 2.1934300000 22.8613300000 -0.0024110000 -0.0064800000 0.0088790000
O 1.5305000000 6.7315400000 25.4227400000 0.0048700000 -0.0013980000 -0.0020110000
O 1.5383900000 4.9296900000 22.8315400000 -0.0045360000 -0.0038180000 0.0089390000
O 3.0657600000 4.0545300000 25.4396700000 0.0044810000 0.0010120000 -0.0081260000
O 1.5302600000 3.1486800000 27.6412500000 -0.0052880000 0.0051480000 0.0003040000
O 1.5319700000 4.9456700000 29.8365700000 -0.0054730000 -0.0025690000 0.0027170000
O 3.0668100000 5.8310800000 27.4094300000 0.0023450000 -0.0048370000 -0.0084000000
O 3.0674200000 2.2540000000 30.0279800000 0.0033770000 -0.0031830000 -0.0037700000
O 3.0657300000 0.4617800000 27.4507900000 0.0032440000 -0.0035580000 0.0044720000
O 3.0679900000 7.6259800000 29.9995100000 0.0003320000 0.0000920000 -0.0104160000
O 1.5316400000 6.7378400000 32.1959000000 0.0023490000 0.0061460000 -0.0014310000
O 3.0691000000 0.5016000000 34.5737800000 -0.0004760000 -0.0068970000 0.0018970000
O 1.5316700000 1.3669200000 32.0410400000 0.0011350000 0.0050420000 -0.0000450000
O 3.0691100000 5.7273400000 34.5419900000 -0.0028710000 0.0003070000 -0.0004930000
O 3.0678000000 4.0113300000 32.0182100000 0.0010000000 -0.0082950000 0.0056790000
O 1.5319000000 3.0568600000 34.7138600000 0.0029800000 0.0079140000 -0.0061820000
Si 1.5268400000 4.8486100000 11.1444200000 0.3279190000 0.7147690000 -0.3499380000
Si 3.0837800000 2.2068800000 11.1419500000 -0.2892650000 -0.4688880000 0.2476660000
Si 3.0666600000 7.5141400000 11.1509500000 0.1801440000 0.4765610000 -0.2976010000
Si 1.5456600000 3.0729400000 8.6383200000 -0.4311280000 0.3734010000 -0.6412580000
Si 3.0789000000 0.4409800000 8.6088300000 -0.3804850000 -0.6582010000 0.3039090000
Si 3.0588100000 5.7482400000 8.6269100000 -0.0431660000 -0.0029550000 -0.2986990000
Si 1.5546700000 4.8691900000 16.1624800000 -0.2236080000 -0.3060140000 0.0032120000
Si 3.0633100000 2.2182000000 16.1659300000 0.2439090000 -0.2860320000 0.2305490000
Si 3.0899900000 7.5272200000 16.1859600000 -0.5426660000 0.1823790000 -0.4339430000
Si 1.5366100000 4.8608900000 21.1846800000 0.0028120000 -0.0178000000 -0.0022370000
Si 3.0728800000 2.2314200000 21.2587000000 0.0004740000 0.0204080000 -0.0208220000
Si 3.0725700000 7.5222300000 21.1213400000 0.0014400000 -0.0031620000 0.0153190000
Si 3.0794500000 3.9751100000 13.6497300000 -0.2506050000 -0.0126330000 0.1003610000
Si 1.5331900000 1.3217000000 13.6587100000 0.1813600000 -0.2031410000 0.2414990000
Si 1.5306300000 6.6379700000 13.6582600000 0.2493590000 0.0126780000 0.0283160000
Si 1.5373500000 3.0934700000 18.7033400000 -0.0018680000 -0.0341480000 -0.0132250000
Si 3.0734900000 0.4378500000 18.6874200000 0.0029020000 0.0804280000 -0.0018620000
Si 3.0743800000 5.7482300000 18.6665500000 -0.0026260000 -0.0377240000 0.0253630000
C 1.5148600000 4.8669000000 8.0101500000 0.2270990000 -0.3347700000 0.1800810000
C 3.0616300000 2.1844700000 8.0025100000 0.3455030000 0.4818530000 1.5153170000
C 3.0595300000 7.5168800000 8.0393400000 0.3341250000 0.2439370000 -0.6626020000
C 1.5310200000 3.0911400000 10.5178600000 0.2917930000 -0.1097670000 0.0140130000
C 3.0738900000 0.4270200000 10.5018400000 -0.0674950000 0.1779930000 0.3625450000
C 3.0869900000 5.7689500000 10.4966200000 -0.4151010000 -0.7459980000 0.5945980000
C 1.5377100000 4.8611700000 18.0420800000 0.0436770000 0.0294160000 -0.0285920000
C 3.0738100000 2.2079900000 18.0620900000 -0.0235270000 0.0337580000 -0.0837140000
C 3.0735000000 7.5321900000 18.0559700000 0.0279110000 -0.0341880000 0.1588630000
C 1.5259800000 4.8620600000 13.0152800000 0.2908850000 0.0087860000 0.1620390000
C 3.0780900000 2.1953600000 13.0462400000 -0.1266810000 0.2286650000 -0.6135320000
C 3.0849100000 7.5285800000 13.0365000000 -0.3542240000 -0.0814660000 -0.1390760000
C 3.0841800000 3.9710000000 15.5337900000 0.0213580000 0.3978270000 0.0885210000
C 1.5377300000 1.3280600000 15.5491700000 -0.1406200000 -0.2527970000 0.0518870000
C 1.5215000000 6.6323600000 15.5469100000 0.5710500000 0.2265570000 0.0773890000
C 1.5364400000 3.0923800000 20.5924600000 -0.0030620000 0.0136440000 0.0114650000
C 3.0726300000 0.4441600000 20.5986400000 0.0035850000 -0.0132310000 -0.0137920000
C 3.0732100000 5.7515500000 20.5420700000 -0.0003310000 0.0216200000 -0.0078740000
H 1.5352600000 4.8818500000 6.9014300000 -0.0304710000 -0.0699860000 0.1486990000
H 3.0782400000 2.2161400000 6.9384200000 -0.0136640000 0.0307060000 -1.3136870000
H 3.0688100000 7.5291600000 6.9207500000 -0.0158260000 -0.0527590000 0.3354290000
69
lattice="3.0729999540 0.0000000000 0.0000000000 1.5365000130 7.9838884020 0.0000000000 0.0000000000 0.0000000000 43.8005676270" Properties=species:S:1:pos:R:3:force:R:3 energy=-473.9490233700 virial="-3.8882631891 -0.6092087205 -0.3034574156 -0.6092087205 -17.2531467183 0.2116213540 -0.3034574156 0.2116213540 1.5098352911"
Ga 1.5294800000 4.7727500000 26.4301100000 -0.0004170000 -0.0005110000 0.0087500000
Ga 3.0658100000 7.7597900000 26.4406500000 0.0019190000 -0.0021010000 0.0058600000
Ga 3.0654400000 2.3150400000 24.6495300000 0.0009570000 0.0042470000 0.0086090000
Ga 1.5359500000 6.5635900000 23.5971700000 -0.0010110000 0.0060580000 0.0067010000
Ga 3.0680900000 0.3769300000 30.9935200000 0.0005710000 -0.0027390000 0.0040710000
Ga 1.5311900000 3.2692700000 31.0305800000 0.0009450000 -0.0011690000 0.0032030000
Ga 3.0683700000 5.8747000000 29.3104100000 -0.0006080000 0.0018010000 0.0026510000
Ga 3.0667600000 2.2141400000 28.1209300000 0.0034780000 -0.0025700000 0.0056230000
Ga 3.0684600000 3.9932500000 35.4113600000 0.0000350000 -0.0021690000 0.0074240000
Ga 1.5310600000 6.8084000000 35.8284100000 0.0016900000 -0.0020210000 0.0064910000
Ga 1.5327100000 1.3308700000 33.9431900000 -0.0023090000 -0.0011820000 0.0019630000
Ga 3.0680600000 5.7861700000 32.6656500000 0.0000720000 -0.0049930000 -0.0018890000
O 3.0726500000 7.4389000000 22.8493500000 -0.0011680000 0.0035010000 -0.0017280000
O 1.5293800000 1.3763700000 25.2325600000 0.0013740000 -0.0035940000 -0.0037880000
O 3.0759500000 2.1934300000 22.8613300000 -0.0020290000 0.0004150000 0.0004810000
O 1.5305000000 6.7315400000 25.4227400000 0.0049610000 -0.0013610000 -0.0033070000
O 1.5383900000 4.9296900000 22.8315400000 -0.0047920000 -0.0100470000 0.0051730000
O 3.0657600000 4.0545300000 25.4396700000 0.0045720000 0.0005410000 -0.0097010000
O 1.5302600000 3.1486800000 27.6412500000 -0.0051910000 0.0058780000 -0.0007910000
O 1.5319700000 4.9456700000 29.8365700000 -0.0053770000 -0.0020970000 0.0020790000
O 3.0668100000 5.8310800000 27.4094300000 0.0024410000 -0.0045610000 -0.0098820000
O 3.0674200000 2.2540000000 30.0279800000 0.0034760000 -0.0028610000 -0.0048360000
O 3.0657300000 0.4617800000 27.4507900000 0.0033420000 -0.0035070000 0.0031670000
O 3.0679900000 7.6259800000 29.9995100000 0.0004290000 0.0003080000 -0.0111230000
O 1.5316400000 6.7378400000 32.1959000000 0.0024480000 0.0067110000 -0.0018580000
O 3.0691000000 0.5016000000 34.5737800000 -0.0003800000 -0.0062920000 0.0015770000
O 1.5316700000 1.3669200000 32.0410400000 0.0012310000 0.0054540000 -0.0006410000
O 3.0691100000 5.7273400000 34.5419900000 -0.0027730000 0.0002830000 -0.0010830000
O 3.0678000000 4.0113300000 32.0182100000 0.0010970000 -0.0081360000 0.0052480000
O 1.5319000000 3.0568600000 34.7138600000 0.0030780000 0.0085770000 -0.0058150000
Si 1.5352400000 4.8539900000 11.1366900000 0.2664380000 0.3479240000 0.3252260000
Si 3.0880400000 2.2087800000 11.1327200000 -0.5947810000 -0.4865630000 0.5326680000
Si 3.0565700000 7.5217900000 11.1404700000 0.6066970000 0.3409550000 0.1548190000
Si 1.5414800000 3.0830500000 8.6275400000 -0.3715240000 0.4245550000 -0.2153300000
Si 3.0925100000 0.4351400000 8.6217700000 -0.6347270000 -0.0445840000 -0.0210070000
Si 3.0706300000 5.7461700000 8.6336900000 -0.2836500000 0.0452210000 -0.2987610000
Si 1.5304300000 4.8625800000 16.1654200000 0.2489770000 0.3182270000 -0.1921280000
Si 3.0685500000 2.1921700000 16.1788100000 0.1027320000 0.3984560000 -0.2692220000
Si 3.0731000000 7.5350700000 16.1647200000 0.0601900000 -0.0192990000 -0.0046990000
Si 1.5366100000 4.8608900000 21.1846800000 0.0031350000 0.0063460000 0.0003230000
Si 3.0728800000 2.2314200000 21.2587000000 -0.0002500000 -0.0101210000 -0.0075400000
Si 3.0725700000 7.5222300000 21.1213400000 0.0009040000 0.0050730000 0.0051050000
Si 3.0848600000 3.9677100000 13.6720500000 -0.3322900000 0.4599430000 -0.6132380000
Si 1.5191300000 1.3217700000 13.6626900000 0.3731900000 0.0725920000 -0.3895150000
Si 1.5286100000 6.6438700000 13.6702700000 -0.0140570000 0.0008430000 -0.6849550000
Si 1.5373500000 3.0934700000 18.7033400000 -0.0037500000 0.0127440000 -0.0139500000
Si 3.0734900000 0.4378500000 18.6874200000 -0.0027750000 -0.0333950000 0.0063850000
Si 3.0743800000 5.7482300000 18.6665500000 -0.0097880000 0.0165950000 -0.0113900000
C 1.5139800000 4.8673500000 7.9950100000 0.4066410000 -0.1371320000 1.3359980000
C 3.0635000000 2.2176400000 8.0146300000 0.3222580000 -0.4320110000 0.3178370000
C 3.0613400000 7.5219900000 8.0404900000 0.5421660000 0.0716950000 -0.4740970000
C 1.5179600000 3.0788500000 10.5288300000 0.6924760000 0.3329600000 -0.5454140000
C 3.0911600000 0.4267600000 10.5014000000 -0.5314890000 0.1791750000 0.3140230000
C 3.0934400000 5.7668200000 10.5202400000 -0.4428000000 -0.6464550000 -0.1127480000
C 1.5377100000 4.8611700000 18.0420800000 -0.0098590000 0.0184980000 0.0030740000
C 3.0738100000 2.2079900000 18.0620900000 -0.0150820000 -0.0371410000 0.0035250000
C 3.0735000000 7.5321900000 18.0559700000 0.0017160000 0.0084530000 -0.0731270000
C 1.5280900000 4.8643700000 13.0233200000 0.3154530000 0.0060510000 0.1726590000
C 3.0763400000 2.2171500000 13.0333800000 -0.2844670000 -0.3443140000 -0.2157580000
C 3.0622300000 7.5402200000 13.0293600000 0.0415050000 -0.2286950000 -0.0648050000
C 3.0800000000 3.9913100000 15.5308400000 -0.2254820000 -0.4319610000 0.6177500000
C 1.5365900000 1.3141300000 15.5321000000 -0.0947640000 0.2061070000 0.5268140000
C 1.5407300000 6.6655100000 15.5292400000 -0.1167110000 -0.5275280000 0.6892690000
C 1.5364400000 3.0923800000 20.5924600000 -0.0005670000 0.0064480000 -0.0141380000
C 3.0726300000 0.4441600000 20.5986400000 -0.0005610000 0.0016750000 0.0011150000
C 3.0732100000 5.7515500000 20.5420700000 -0.0057610000 0.0098390000 -0.0018370000