100
lattice="3.0913303210 0.0000000000 0.0000000000 0.0000000000 15.9076677750 0.0000000000 0.0000000000 0.0000000000 24.6596149780" Properties=species:S:1:pos:R:3:force:R:3 energy=-537.7449961400 virial="177.3096154923 -2.7099078551 3.3257973801 -2.7099078551 171.8089951248 7.4057211025 3.3257973801 7.4057211025 200.7940404494"
Ga 2.5465500000 14.4850000000 7.7724400000 0.3515420000 -1.4646610000 0.2925590000
Ga 2.6870800000 9.0699400000 7.8607600000 0.6056900000 0.6819530000 -0.9084390000
Ga 2.7537100000 3.7064500000 7.9743700000 0.4325120000 2.0280950000 -0.3426450000
Ga 1.1096900000 1.0687500000 7.9249000000 -0.0028220000 1.5511680000 0.0751170000
Ga 0.9945500000 11.8149000000 8.0502100000 0.0478830000 -0.3585260000 -0.6963630000
Ga 1.0863900000 6.4245400000 7.7227900000 -1.0454500000 -1.1789140000 0.5559230000
Ga 2.7275500000 0.3079000000 10.5058000000 0.8364830000 -1.3148470000 0.4468040000
Ga 2.7420500000 5.5656400000 10.4639000000 -0.9893040000 0.7836410000 0.6020360000
Ga 2.5957400000 10.8670000000 10.5444000000 0.8729570000 -0.2536850000 -0.0921880000
Ga 1.1575500000 13.5864000000 10.3673000000 -1.2468610000 0.0524140000 0.5759150000
Ga 1.2465500000 8.2644400000 10.4292000000 -0.2234180000 -0.0356180000 -0.5268610000
Ga 1.1316800000 3.0019500000 10.4471000000 0.1891040000 -0.8919700000 0.6386930000
Ga 2.6400300000 14.3802000000 12.8906000000 0.8527740000 0.5965440000 0.8748450000
Ga 2.7586300000 3.7918900000 12.9975000000 -0.3576230000 0.2745590000 0.7841150000
Ga 2.7039700000 9.1119600000 12.9297000000 0.0356470000 -0.1789820000 0.2383070000
Ga 1.1366000000 1.1500200000 13.0106000000 0.3315050000 0.0217450000 1.1214800000
Ga 1.1097900000 6.4648800000 12.9631000000 0.7035040000 0.5676390000 -1.3121970000
Ga 1.2042200000 11.7235000000 12.9510000000 0.0472430000 1.2900770000 1.6916810000
Ga 2.7825600000 2.0240600000 15.4852000000 -0.8667150000 -0.0492810000 1.0118060000
Ga 2.7797300000 7.2714600000 15.4073000000 -0.7934240000 0.5236780000 0.9278220000
Ga 2.7291900000 12.5988000000 15.4846000000 0.6641570000 0.1530520000 0.2201420000
Ga 1.2683100000 9.9429300000 15.4376000000 -0.3336540000 -1.2404190000 0.2482940000
Ga 1.1367200000 4.6994800000 15.4344000000 0.8324760000 0.7851280000 0.4653530000
Ga 1.1989400000 15.2170000000 15.3741000000 0.9715740000 0.4116420000 0.7631160000
Ga 2.7165000000 14.3703000000 17.9717000000 0.4557450000 0.0619040000 -1.4619080000
Ga 2.6547500000 3.8522600000 18.0283000000 0.0076810000 -0.8650310000 -3.2830980000
Ga 2.7761500000 9.1006000000 17.8178000000 1.2898080000 -0.6342800000 -1.9355360000
Ga 1.1573100000 11.7433000000 18.0272000000 0.3430300000 0.1234390000 -0.3842060000
Ga 1.2621400000 6.4142200000 17.9340000000 -0.0698610000 -0.3562370000 -1.3878440000
Ga 1.1877600000 1.1711100000 17.9931000000 -0.3936660000 -0.6087170000 0.2156050000
O 2.6556700000 2.0208700000 7.3935600000 -0.3140780000 -1.9997790000 -1.4409670000
O 2.5601800000 12.6408000000 7.3760400000 -0.4055600000 0.5488750000 -1.4588810000
O 2.5823500000 7.2993500000 7.3476400000 0.9734430000 0.5956720000 -1.5425620000
O 1.0115200000 15.2811000000 7.3247000000 -0.2004910000 -0.1497680000 -2.2210550000
O 1.1965800000 10.0373000000 7.2803900000 -0.1996720000 -0.4239700000 -0.1270210000
O 1.1928100000 4.5858000000 7.2391700000 0.3960670000 0.3480560000 -0.5412130000
O 2.6395600000 14.4263000000 9.7945900000 0.9969930000 0.8462470000 -1.6272610000
O 2.6849100000 3.8427600000 9.8572300000 -0.4418740000 -0.1013930000 -0.9679130000
O 2.7760100000 9.1906200000 9.8071400000 0.5516650000 -0.8222440000 -1.0111280000
O 1.2212100000 1.1234800000 9.9628500000 -0.6856120000 0.8341990000 -0.7242200000
O 1.1334800000 6.4557800000 9.9045800000 0.9604870000 0.3488990000 -1.5049970000
O 1.1150400000 11.7431000000 9.9755200000 -1.0714890000 0.1483300000 -0.2976950000
O 2.6999900000 0.3285300000 12.4270000000 -0.3195690000 -0.0220380000 -0.9643120000
O 2.6999900000 5.5967500000 12.3937000000 -0.8505760000 0.0332370000 -0.9301910000
O 2.7546300000 10.9086000000 12.4065000000 0.3751940000 -0.3122820000 -0.4447170000
O 1.1492300000 13.5194000000 12.3082000000 -1.0173080000 -0.9098370000 -1.1178450000
O 1.1658200000 8.2873600000 12.3048000000 -0.3602530000 -0.8408280000 -0.0753210000
O 1.1873000000 2.8982700000 12.3962000000 0.5445140000 -0.4721220000 -1.0754100000
O 2.7954700000 9.0664800000 14.8000000000 0.3314740000 0.0055300000 0.2264130000
O 2.7253700000 3.7982400000 14.9717000000 -0.9300780000 -0.4468060000 0.2150370000
O 2.7981800000 14.3558000000 14.8346000000 -0.7825020000 -0.2311950000 -0.1037230000
O 1.1916500000 1.1488400000 14.9415000000 0.8209900000 -0.3636810000 0.2010880000
O 1.1961200000 6.4988100000 14.7580000000 0.8368040000 -0.0724500000 0.9085970000
O 1.2309300000 11.6702000000 14.9278000000 -0.6847340000 0.6021790000 -0.2696480000
O 1.2336400000 15.2832000000 17.3211000000 -0.7515210000 0.1188620000 -2.7152030000
O 1.1244300000 4.6796800000 17.3681000000 -0.2165540000 -0.7519080000 -2.3538540000
O 1.2880000000 9.9900100000 17.3128000000 -1.1944790000 1.2016590000 -1.8013210000
O 2.7416400000 12.6271000000 17.4122000000 -0.4852350000 -0.6133350000 -1.9074950000
O 2.8060400000 7.2702000000 17.3002000000 0.0592400000 -0.0587870000 -2.1631420000
O 2.7080400000 2.0132600000 17.4619000000 0.4646900000 0.9362320000 -2.7708880000
Si 1.5171500000 1.4424200000 23.3806000000 -1.0351330000 0.6100420000 -1.4841570000
Si 2.8191600000 4.0006500000 21.4616000000 -0.0729180000 -0.5447510000 0.4714750000
Si 0.4375100000 1.9651900000 1.5595900000 -1.4473600000 -1.6371280000 1.4674170000
Si 2.0295100000 4.5477200000 1.5126900000 1.0749540000 -0.2891030000 2.5517450000
Si 1.4372600000 6.4689400000 23.1421000000 0.1221720000 0.3135880000 -1.3212560000
Si 1.1693300000 8.2712400000 20.3771000000 -0.2499640000 1.9870310000 -1.0092940000
Si 1.8605500000 3.4259200000 5.5867700000 -0.4552900000 -0.2486150000 -2.4509840000
Si 0.5236800000 7.0333300000 1.2462900000 0.4906620000 0.5317010000 1.7949670000
Si 3.0768000000 9.4408600000 23.2678000000 0.0178850000 -0.2342420000 -0.1838150000
Si 1.3960700000 11.9744000000 21.5340000000 -1.6835370000 -0.2268580000 0.6844790000
Si 2.0016100000 9.8234000000 1.4482900000 0.1837980000 -0.3665000000 1.6338800000
Si 0.6117900000 12.5559000000 1.3055900000 0.0133170000 0.0668240000 1.5867030000
Si 2.6792200000 14.3641000000 23.2890000000 0.3135740000 1.3123520000 -2.4150450000
Si 2.6189500000 0.2651100000 20.4778000000 1.0222530000 1.6046480000 0.2468780000
Si 2.3382000000 11.2564000000 5.6724800000 -0.0932450000 0.3501240000 -2.0379510000
Si 2.1096700000 15.2303000000 1.5154900000 -0.1788560000 -0.8687300000 2.2581670000
C 3.0300400000 0.4907300000 22.2398000000 -0.5286870000 -0.1563320000 1.4321490000
C 2.7095500000 3.9297000000 19.6631000000 0.2774770000 0.4291080000 7.7104680000
C 1.2517800000 3.1305500000 22.1122000000 0.4033720000 -0.8042220000 0.2781740000
C 3.0156300000 2.0363200000 24.3912000000 0.6559430000 -0.6152860000 0.5473230000
C 1.8790800000 1.0376500000 2.2720900000 1.6244260000 0.1919510000 -2.4791000000
C 1.2803000000 6.6820700000 19.6034000000 -0.0333380000 0.0940970000 5.4633350000
C 2.9770300000 5.7531700000 22.1129000000 -0.1447970000 0.5848520000 1.5570520000
C 1.0817000000 5.2480400000 0.1194900000 0.6781250000 1.3338100000 -0.6759550000
C 0.5072100000 3.6458300000 2.1419900000 -0.5748040000 1.6457540000 -1.4104500000
C 2.6734800000 9.0962000000 19.5062000000 0.3601330000 -1.2764420000 7.4080260000
C 1.4443200000 8.3400300000 22.1465000000 -0.6765160000 0.1856060000 1.7301220000
C 2.9168300000 7.6257300000 24.2129000000 0.2548370000 0.5510040000 0.2203710000
C 2.1346300000 6.3491500000 2.1112900000 -1.7555520000 -0.8787330000 -2.1491270000
C 1.2092700000 11.5936000000 19.7279000000 0.4826690000 -0.2103820000 5.6145840000
C 2.8468200000 11.0669000000 22.2540000000 0.8479950000 0.4837210000 -0.7097180000
C 1.5156600000 10.0753000000 24.3199000000 0.2002180000 -1.0105590000 0.0027070000
C 0.4697600000 8.8337300000 1.9654900000 0.0010930000 0.8189780000 -2.3083410000
C 2.7838900000 14.6208000000 19.6451000000 0.2472280000 0.0438550000 5.3417060000
C 1.1560500000 13.8176000000 22.3003000000 -0.0744420000 -0.9827820000 0.2159570000
C 2.4673300000 13.2133000000 0.0108900000 0.5593940000 -1.3270820000 1.4736920000
C 2.1143600000 11.6148000000 2.0359900000 0.0516860000 -0.4339630000 -1.7844950000
C 1.1284200000 1.0770000000 19.7416000000 -0.6770440000 -1.0903740000 4.0411200000
C 1.5049400000 15.6604000000 24.4289000000 1.1615300000 0.5170240000 0.2225440000
C 0.6135800000 14.2303000000 2.1617900000 -1.3117530000 1.0949520000 -2.3468340000
100
lattice="3.0913303210 0.0000000000 0.0000000000 0.0000000000 15.9076677750 0.0000000000 0.0000000000 0.0000000000 24.6596149780" Properties=species:S:1:pos:R:3:force:R:3 energy=-538.8091756000 virial="146.0877661633 2.5619375433 -3.1792500053 2.5619375433 163.3637277078 9.0079406115 -3.1792500053 9.0079406115 199.7234392914"
Ga 2.8180200000 14.5113000000 7.7631100000 0.4574590000 -1.4240090000 -0.3507870000
Ga 2.7658000000 9.0842000000 7.8650700000 -0.3333780000 1.0741940000 -0.8171090000
Ga 2.7207100000 3.7745500000 7.8517700000 -0.4611430000 1.0545510000 -0.3473110000
Ga 1.3446600000 1.2289300000 7.6003600000 -0.3944120000 0.3881790000 -0.2921270000
Ga 1.2430800000 11.7828000000 7.9509700000 0.1583580000 0.0971530000 -1.5768800000
Ga 1.1257400000 6.5573100000 7.7956200000 1.0198250000 -1.2561010000 -0.5695690000
Ga 2.8685600000 0.3685300000 10.2196000000 -0.8380080000 -0.1919440000 1.4131020000
Ga 2.7347200000 5.5680500000 10.4289000000 0.2992010000 0.4363810000 -0.7515160000
Ga 2.7479800000 10.8921000000 10.4402000000 0.7720380000 0.1144130000 1.0078960000
Ga 1.3125900000 13.4947000000 10.3262000000 0.5944560000 2.2838480000 1.2914870000
Ga 1.2001300000 8.2342300000 10.3579000000 0.3988770000 -0.1363870000 0.4829150000
Ga 1.2126900000 2.9092700000 10.4503000000 0.2634540000 -0.3545610000 -0.6559480000
Ga 2.8309200000 14.5277000000 12.8770000000 0.5708170000 -0.3774200000 0.1500180000
Ga 2.7341800000 3.7708200000 12.9378000000 0.3083150000 0.0626230000 0.7269850000
Ga 2.7403000000 9.1472300000 12.8792000000 -0.0113290000 -0.6657270000 0.9178570000
Ga 1.2791900000 1.0891000000 12.8990000000 0.3088850000 0.8752320000 1.1507240000
Ga 1.1945400000 6.5020100000 12.8505000000 0.6338940000 -1.1625230000 1.1930860000
Ga 1.2655900000 11.8812000000 12.9755000000 0.3800210000 -0.1208880000 -0.0627570000
Ga 2.7315000000 2.1166400000 15.4587000000 1.2871440000 -0.4838720000 0.0475720000
Ga 2.7237800000 7.3464800000 15.4559000000 -0.5400780000 -0.1284490000 -0.3194530000
Ga 2.6892200000 12.6837000000 15.4457000000 0.1318290000 0.6942020000 0.7386900000
Ga 1.2229700000 9.9676400000 15.5618000000 -0.1998840000 0.4162090000 -0.3988650000
Ga 1.1988100000 4.7414300000 15.4456000000 0.8708160000 -0.3413240000 1.2012710000
Ga 1.2415800000 15.3180000000 15.4340000000 -0.1798110000 -0.1211110000 0.3256900000
Ga 2.8384800000 14.5414000000 18.0095000000 -0.2605440000 -2.2688450000 -6.1518100000
Ga 2.7741200000 3.8427400000 18.0192000000 0.0091870000 0.2977660000 -2.5410240000
Ga 2.8487100000 9.1242100000 17.9981000000 -0.6291240000 0.4565610000 -2.5164880000
Ga 1.2418100000 11.9039000000 18.0699000000 -0.3409850000 -0.4770110000 -0.7339300000
Ga 1.3125100000 6.3913900000 17.9812000000 0.5155150000 1.1421980000 -2.5536890000
Ga 1.2390600000 1.2645300000 17.8817000000 0.1873010000 -0.6353520000 0.4649640000
O 2.8729900000 2.1104200000 7.1083500000 0.4651830000 -1.0083540000 -1.1398810000
O 2.7844300000 12.6268000000 7.3107800000 0.1082840000 0.9305500000 -0.8770450000
O 2.7188700000 7.3779000000 7.2696800000 -0.9395310000 -0.5036220000 -1.8065350000
O 1.2939600000 15.3393000000 7.2773300000 -0.4922520000 0.2423150000 -1.6218490000
O 1.1989700000 10.0135000000 7.3451000000 0.2658740000 -0.7235260000 -0.2791850000
O 1.1449300000 4.7109400000 7.1965300000 0.0797200000 0.9407070000 -0.4966510000
O 2.9011800000 14.4452000000 9.7500300000 -0.4758880000 0.1755500000 -0.5578280000
O 2.7817100000 3.7958600000 9.8034400000 -0.2078370000 0.0497490000 -0.6069460000
O 2.7717900000 9.1462200000 9.8146300000 -0.3981170000 -0.2809150000 -0.8578090000
O 1.2771100000 1.1991500000 9.6253800000 0.8345140000 0.3091180000 -2.0170910000
O 1.2189400000 6.4582100000 9.7415600000 -0.3868620000 -0.5706980000 -1.1121500000
O 1.2621700000 11.8065000000 9.8134800000 -0.8918390000 -1.8258360000 -0.9329640000
O 2.8389400000 0.3742700000 12.2461000000 -0.3409330000 -0.3419450000 -2.1839850000
O 2.7948500000 5.5213300000 12.2758000000 -0.4414980000 -0.3080650000 0.4720160000
O 2.8454800000 10.9120000000 12.3691000000 -0.2199700000 0.5479320000 -0.0524160000
O 1.3249000000 13.6183000000 12.2712000000 -0.5608960000 0.5230510000 -1.2139460000
O 1.1987000000 8.2183600000 12.2921000000 -0.1917590000 1.4308100000 -0.9266800000
O 1.2100800000 2.9539000000 12.2977000000 -0.3653220000 -0.6522400000 0.2913600000
O 2.7502200000 9.1165800000 14.8331000000 0.3010770000 0.3685180000 -0.6645730000
O 2.8009100000 3.8457100000 14.8425000000 -0.5934480000 0.4920180000 -0.2809110000
O 2.7772100000 14.5090000000 14.7388000000 0.1655880000 -0.1793480000 0.4888090000
O 1.2749900000 1.2295700000 14.8459000000 -1.2809570000 -0.2215480000 -0.0145390000
O 1.1373400000 6.4636500000 14.8101000000 0.3139810000 0.7340210000 -0.4598510000
O 1.1493300000 11.7626000000 14.8425000000 -0.2303320000 -1.2163400000 0.5667820000
O 1.2837700000 15.3702000000 17.3586000000 0.2179990000 0.0814460000 -2.9156090000
O 1.2469300000 4.7153500000 17.4167000000 -0.3165420000 -1.3696530000 -2.6624180000
O 1.2402200000 10.0429000000 17.4179000000 0.8106190000 0.8922300000 -0.6304680000
O 2.7476800000 12.7514000000 17.4210000000 0.5489230000 0.0289900000 -1.8179750000
O 2.8618400000 7.3624600000 17.3016000000 -0.0469120000 -0.4354700000 -1.3933060000
O 2.8001700000 2.0769000000 17.3397000000 -0.2505420000 0.6618490000 -2.0218780000
Si 1.4019300000 1.3958300000 23.3338000000 -0.5717440000 -0.4439510000 -0.6090970000
Si 2.8323000000 3.9287100000 21.5334000000 -0.6634030000 -1.5959600000 -0.0906030000
Si 0.2546900000 1.7731600000 1.5991900000 1.5841620000 0.1501950000 1.8267580000
Si 2.2477800000 4.5651900000 1.4763900000 0.1827280000 0.3802760000 1.1067990000
Si 1.1922200000 6.3556000000 23.3978000000 -0.0647620000 0.0002750000 -1.3720360000
Si 1.3225800000 8.2049800000 20.5114000000 -0.8701450000 1.4074200000 -0.1708970000
Si 0.9371100000 4.0030300000 5.2504900000 0.1277780000 0.0621350000 -2.1568660000
Si 0.6815200000 7.1737500000 1.5663900000 -0.0622330000 0.5360870000 1.2051740000
Si 2.8355700000 9.3021200000 23.4247000000 -0.0778890000 0.2009330000 -0.2895150000
Si 0.9516200000 11.7207000000 21.5876000000 2.0823570000 -0.4777330000 -0.1569890000
Si 2.1328600000 9.9271800000 1.6815900000 -0.9700430000 -1.8696220000 1.4310580000
Si 0.4968700000 12.4857000000 1.2569900000 -0.0136240000 -0.1459480000 0.8291430000
Si 2.4562000000 14.1903000000 23.0908000000 -0.4742200000 0.1882780000 -1.8742490000
Si 3.0415500000 0.3972300000 20.5171000000 -1.5002680000 1.0913230000 -2.1150560000
Si 3.0782700000 11.3440000000 5.5720300000 -0.2191710000 0.1166240000 -2.1071690000
Si 1.9519700000 14.9303000000 1.3516900000 -0.3344450000 1.0532060000 3.9133790000
C 2.8580400000 0.4750800000 22.2442000000 -0.1875070000 0.3436320000 2.4707690000
C 2.8358100000 3.7460100000 19.6711000000 0.2251130000 -0.4023920000 8.0625340000
C 1.2342300000 2.9744900000 22.2147000000 0.2649190000 0.5129110000 -0.5410110000
C 2.8251300000 1.9961100000 24.4678000000 0.7131300000 -1.0396630000 0.2483250000
C 1.8918700000 0.8228000000 2.2155900000 -0.9814220000 0.1420080000 -2.5640070000
C 1.2007600000 6.6552100000 19.6161000000 -0.3276160000 0.8481120000 6.9848730000
C 2.6480400000 5.5707700000 22.3438000000 0.4430040000 0.8862030000 1.2722460000
C 0.7796100000 5.2181700000 0.2680900000 0.2708450000 -0.4935060000 0.3866250000
C 0.6534100000 3.5000800000 2.2888900000 -0.1915870000 0.7255030000 -1.3054810000
C 2.8078800000 9.0044100000 19.6738000000 0.3840870000 -1.5174130000 7.6131310000
C 1.1190700000 8.3778800000 22.3534000000 0.2849390000 -0.6639450000 0.5291300000
C 2.8052900000 7.5280600000 24.4027000000 0.1819890000 -0.3515600000 0.3537960000
C 2.2700100000 6.3805100000 2.2579900000 -1.6465860000 -1.1849170000 -1.6278360000
C 1.1895600000 11.8180000000 19.7791000000 -0.3814450000 -0.3219200000 4.5340890000
C 2.6331500000 10.7367000000 22.1475000000 -2.0763480000 0.4453870000 0.5740650000
C 1.2338300000 9.8772100000 24.5983000000 0.7699540000 -0.3320060000 0.8428480000
C 0.5412400000 8.8682400000 2.3592900000 0.3918900000 2.0392160000 -2.9003750000
C 2.8428500000 14.7993000000 19.5840000000 0.1540030000 1.3962230000 10.3782370000
C 0.9029200000 13.5170000000 22.1363000000 0.1706230000 0.5983160000 1.7410110000
C 2.1616900000 13.0156000000 24.5764000000 0.2761720000 -0.5512990000 0.8455710000
C 1.9685100000 11.6788000000 2.1725900000 0.6492390000 -0.4107660000 -1.7412020000
C 1.3168500000 1.2338500000 19.6261000000 1.6372040000 -0.6830260000 4.9483680000
C 1.5676200000 15.4597000000 24.3594000000 0.4280970000 0.8318850000 -1.5446280000
C 0.3796900000 14.1394000000 2.0501900000 -0.0667950000 0.5101940000 -1.6783880000
100
lattice="3.0913303210 0.0000000000 0.0000000000 0.0000000000 15.9076677750 0.0000000000 0.0000000000 0.0000000000 24.6596149780" Properties=species:S:1:pos:R:3:force:R:3 energy=-539.4987859800 virial="154.5596455300 6.4044805551 -2.2273202806 6.4044805551 163.9169096096 -2.3671995303 -2.2273202806 -2.3671995303 222.2870120736"
Ga 2.9569400000 14.3646000000 7.8528700000 -0.0418110000 0.5118080000 -0.9832330000
Ga 2.9508700000 9.0558100000 7.7354000000 -0.8262680000 -0.9407560000 -0.4391320000
Ga 2.9144800000 3.6325700000 7.7058000000 1.1218460000 1.4726200000 -0.3062240000
Ga 1.4691900000 1.1568000000 7.8244000000 0.5497690000 -2.2740120000 -0.5421750000
Ga 1.3883100000 11.6438000000 7.8158000000 -1.0233460000 1.6209330000 -0.8550260000
Ga 1.2352000000 6.3487100000 7.8988200000 1.2727360000 -0.3223850000 -1.0001040000
Ga 2.9861200000 0.1138400000 10.3527000000 0.5104660000 0.4417210000 0.5488700000
Ga 2.9117600000 5.3821500000 10.3887000000 0.2920030000 -0.0427980000 1.4992960000
Ga 2.9879100000 10.6948000000 10.3989000000 0.2730400000 -0.0995070000 -0.3591400000
Ga 1.5108500000 13.3642000000 10.3600000000 -1.2274780000 0.1194450000 0.5660840000
Ga 1.3809000000 8.0218100000 10.3284000000 -0.0492190000 1.7654190000 0.1662740000
Ga 1.4131800000 2.8187500000 10.4020000000 -0.0892820000 0.5416980000 0.0079490000
Ga 3.0424800000 14.2907000000 12.8734000000 -0.0797840000 -0.7325190000 0.2820060000
Ga 2.9284000000 3.6503200000 12.9573000000 0.4543290000 -0.1806410000 -0.6366880000
Ga 2.9880700000 8.9754400000 12.8923000000 -0.3470750000 -0.4441870000 0.3109070000
Ga 1.3940500000 1.0086000000 12.8915000000 0.3318400000 -0.2084220000 1.0138200000
Ga 1.3925700000 6.3683600000 12.9138000000 -0.0758290000 -0.2016530000 1.2755740000
Ga 1.3953500000 11.6419000000 12.9632000000 0.8180580000 -0.2944330000 -0.5848030000
Ga 2.9483500000 1.9341200000 15.4483000000 0.7617360000 0.2789540000 1.1417660000
Ga 2.9640700000 7.1951600000 15.3880000000 -0.2647140000 0.8666960000 -0.0821560000
Ga 2.9023800000 12.6110000000 15.4536000000 0.8159300000 -0.4824830000 0.9099550000
Ga 1.3233500000 9.9235700000 15.4048000000 0.2092750000 -0.5035950000 0.4126690000
Ga 1.4290200000 4.5630200000 15.4688000000 0.0541590000 -0.2870350000 1.1156280000
Ga 1.3631700000 15.1578000000 15.4155000000 0.9795520000 0.7014170000 -0.5196560000
Ga 3.0050400000 14.3325000000 17.9120000000 -0.6563060000 -1.5590540000 -3.8948380000
Ga 3.0487400000 3.7112200000 18.0189000000 0.8131560000 0.2232560000 -2.5602800000
Ga 2.8677800000 9.0109500000 17.9639000000 0.5259500000 1.0422110000 -1.4043200000
Ga 1.4379200000 11.6555000000 18.0523000000 -0.4769770000 -0.7292110000 -6.0008210000
Ga 1.4562900000 6.3727500000 17.9039000000 -0.5810280000 -0.9091870000 -3.3292640000
Ga 1.4507200000 0.9917200000 18.0019000000 -0.0843750000 1.4508550000 -1.5961130000
O 3.0423100000 1.9012400000 7.2559500000 -0.5611630000 -0.0763820000 -2.0536850000
O 2.8533400000 12.5884000000 7.2380500000 0.9633990000 -0.7919210000 -0.1036060000
O 2.8642900000 7.2060700000 7.2825100000 -1.4231650000 1.1135740000 -1.0214830000
O 1.4075500000 15.1802000000 7.1634500000 0.0642060000 0.7647490000 -0.7735550000
O 1.3662100000 9.9288900000 7.3097400000 0.8556280000 -0.6520710000 -1.6814370000
O 1.4441200000 4.6030700000 7.2791600000 -1.0928870000 -0.6124580000 -0.4689730000
O 2.9702200000 14.2682000000 9.7469300000 1.0663490000 -0.6875070000 -0.8594590000
O 2.9569200000 3.6664800000 9.7155000000 0.0768120000 -0.8757140000 -1.7537850000
O 2.9204600000 8.9186400000 9.6884000000 -0.0254390000 -0.1195650000 -0.9255270000
O 1.4774800000 1.0542700000 9.7772900000 -0.4155040000 0.3870860000 -0.6394180000
O 1.3913300000 6.2999500000 9.7905300000 -0.2202930000 -0.9337280000 -0.9117540000
O 1.4678100000 11.6224000000 9.7290300000 -0.2477410000 -0.5776720000 -0.3820280000
O 2.9619500000 0.1253400000 12.3094000000 -0.5590000000 0.5266520000 -1.0788480000
O 2.9347600000 5.4288600000 12.3738000000 0.0923830000 -0.1719390000 -0.7231710000
O 3.0181700000 10.7536000000 12.2588000000 -0.9420180000 0.4270900000 0.0879450000
O 1.4841500000 13.3907000000 12.2642000000 0.3159230000 -0.0537200000 -0.4141250000
O 1.4104300000 8.0701300000 12.1957000000 0.4327850000 0.7280880000 -0.9197830000
O 1.4192700000 2.7727900000 12.2848000000 -0.4269830000 0.2301170000 -0.1826370000
O 2.8883800000 8.9825400000 14.7917000000 -0.3705210000 -0.0464430000 1.0461570000
O 2.9792400000 3.7133700000 14.8052000000 -0.0829060000 0.1651020000 0.2708160000
O 2.9671800000 14.3452000000 14.7523000000 -0.9714510000 0.4430150000 -0.2645630000
O 1.4459600000 1.1002800000 14.8348000000 -0.6742670000 -0.8336670000 -0.0690400000
O 1.4053200000 6.3535300000 14.9178000000 0.3642330000 -0.6213140000 -0.1465440000
O 1.4386000000 11.6692000000 14.7940000000 -0.7381830000 0.4601610000 0.9942330000
O 1.4616200000 15.1647000000 17.2579000000 0.1738900000 0.2800170000 -1.8993840000
O 1.5164100000 4.5679700000 17.4165000000 -0.3019400000 0.1098650000 -2.1628360000
O 1.3358100000 9.8798700000 17.3329000000 -0.3324760000 0.3435890000 -1.7440230000
O 3.0001200000 12.5243000000 17.3900000000 -0.0961420000 -0.2747740000 -2.0665100000
O 2.9301900000 7.2941900000 17.2762000000 0.7856090000 -0.2723410000 -2.7703440000
O 3.0008100000 1.9087000000 17.3987000000 0.0022780000 -0.3286160000 -1.8293060000
Si 1.6406500000 1.3212100000 23.2977000000 0.6184410000 -0.7827440000 0.6643790000
Si 3.0216000000 3.8238500000 21.5436000000 0.0371400000 -2.7308780000 -0.6418350000
Si 0.0100800000 1.6520700000 1.6911900000 0.6050590000 1.1712800000 2.4183140000
Si 1.5480700000 4.4159700000 1.7681900000 1.4396640000 -0.5387530000 3.3038820000
Si 1.5814400000 6.2175800000 23.4441000000 -0.0301230000 0.2128420000 -1.5400840000
Si 1.4132100000 7.9743600000 20.4677000000 -1.4593270000 2.7801470000 0.5162100000
Si 2.7104900000 6.1971500000 5.4463500000 -0.0408830000 -0.0711260000 -2.1849250000
Si 3.0328200000 6.9941100000 1.5826900000 1.2622290000 1.3212480000 2.1307890000
Si 2.9984300000 9.3020400000 23.2682000000 -0.1192340000 -0.0842970000 -0.2533410000
Si 1.4804800000 11.8665000000 21.5033000000 -1.0908380000 -2.5362230000 -0.9504590000
Si 1.5462000000 9.7233300000 1.5213900000 0.3149270000 0.3425150000 2.5363900000
Si 0.0380800000 12.4986000000 1.4308900000 0.8258310000 -1.5057310000 4.4926410000
Si 0.0450600000 14.2075000000 23.1989000000 -0.2645500000 1.6694510000 -2.5342410000
Si 3.0781200000 0.1228000000 20.5298000000 -0.4021850000 -0.0742640000 -2.0751650000
Si 1.3512700000 13.7033000000 5.5027800000 0.0219480000 0.4470800000 -2.3290820000
Si 1.5567900000 15.0151000000 1.3427900000 0.8300380000 0.8117070000 3.3654010000
C 3.0087200000 0.2301300000 22.2648000000 0.1691650000 0.4026130000 2.2548070000
C 2.9013100000 3.5764400000 19.6660000000 -0.2971060000 -0.2050250000 8.4461410000
C 1.4828900000 2.8106100000 22.2015000000 0.0421910000 1.9380840000 -1.0773430000
C 0.1940700000 1.7903200000 24.4953000000 -0.7305740000 -0.9670630000 -0.4356290000
C 1.5773900000 0.7857800000 2.3267900000 -0.1854200000 0.0324640000 -2.6867820000
C 1.4185600000 6.5072200000 19.5466000000 -0.2392020000 -0.6111510000 6.9649820000
C 0.0938000000 5.4770500000 22.2593000000 -0.0715950000 1.6356730000 1.9381920000
C 1.7222300000 4.8161000000 0.0463900000 -0.2118070000 0.9845130000 -1.2985710000
C 0.1107900000 3.5104300000 2.4332900000 -1.6690520000 -0.6503010000 -2.5837530000
C 2.8036700000 8.8709000000 19.6575000000 1.2253860000 -1.5475290000 6.1705900000
C 1.4164800000 8.2711000000 22.2743000000 -0.1277270000 -0.0215620000 0.6029970000
C 3.0609300000 7.3304200000 24.3625000000 0.0878610000 -0.6267250000 0.3381380000
C 1.5570200000 6.2480400000 2.3935900000 -0.8589530000 -0.8455220000 -2.2148590000
C 1.5276600000 11.7876000000 19.6401000000 0.4410900000 0.9065460000 11.1995230000
C 2.9170500000 10.8412000000 22.0856000000 1.2416390000 0.6957250000 -0.1181770000
C 1.4145000000 9.8531800000 24.3778000000 0.2255770000 -0.7967980000 -0.9905810000
C 0.0131000000 8.8454700000 2.1437900000 -0.1778600000 -0.3845180000 -2.0718420000
C 0.0397200000 14.4800000000 19.5421000000 0.6070010000 0.8996770000 8.6144980000
C 1.5658100000 13.5307000000 22.1723000000 0.2029250000 1.2457460000 1.2655950000
C 0.1522300000 12.9204000000 24.4314000000 0.0103640000 0.2562530000 -1.5731770000
C 1.6464200000 11.5607000000 2.0182900000 -1.1154840000 -0.0353450000 -1.9393330000
C 1.5110100000 0.7669000000 19.6921000000 0.3998780000 -0.8775970000 5.4369630000
C 1.7403800000 15.2529000000 24.1681000000 -0.4905770000 -0.0378040000 0.7691180000
C 0.0780900000 14.2600000000 2.2027900000 -0.6976270000 -0.6970350000 -2.6405220000
100
lattice="3.0913303210 0.0000000000 0.0000000000 0.0000000000 15.9076677750 0.0000000000 0.0000000000 0.0000000000 24.6596149780" Properties=species:S:1:pos:R:3:force:R:3 energy=-540.3508506500 virial="159.0733909589 1.1251647374 -6.4987577011 1.1251647374 150.9221946685 2.3917073498 -6.4987577011 2.3917073498 194.2271709919"
Ga 0.0651900000 14.4434000000 7.8680800000 -1.3531060000 -0.0414620000 -0.9083450000
Ga 0.0128400000 9.1849200000 7.6640600000 -0.1794100000 -1.2101570000 -0.8983140000
Ga 3.0602900000 3.7716000000 7.6755100000 1.4792930000 -0.9529410000 -0.2382840000
Ga 1.6400500000 1.1568400000 7.7832900000 0.3439890000 0.8542160000 -0.1979130000
Ga 1.5728100000 11.7155000000 7.7192000000 0.7301260000 1.6390980000 -0.2459690000
Ga 1.6270800000 6.4519200000 7.7447200000 -0.8563500000 0.6663320000 -0.6618420000
Ga 0.0576300000 0.2224600000 10.3906000000 -0.7646750000 0.3167700000 0.6964520000
Ga 3.0803000000 5.5795700000 10.2944000000 -0.1363870000 -0.0353420000 1.3484960000
Ga 0.0091300000 10.9075000000 10.2497000000 -0.0244320000 -1.2662340000 0.7968780000
Ga 1.4948200000 13.5093000000 10.3581000000 0.2272780000 -0.6898200000 0.3853450000
Ga 1.4606400000 8.1625500000 10.2105000000 0.0448160000 0.0831790000 1.0304410000
Ga 1.5250000000 2.8892900000 10.3364000000 0.6026450000 0.2590840000 0.1636330000
Ga 3.0895200000 14.3709000000 12.8603000000 0.0577620000 -0.5336640000 -0.1787210000
Ga 0.0185800000 3.7813700000 12.8877000000 -0.9251660000 0.2004530000 1.1765730000
Ga 3.0585900000 9.0892300000 12.8316000000 0.3388720000 0.0086330000 0.6903260000
Ga 1.5560700000 1.1019300000 12.8747000000 0.2817170000 0.3183510000 0.1260910000
Ga 1.5718300000 6.4401900000 12.8478000000 0.0970950000 0.6385270000 -0.5857810000
Ga 1.5567400000 11.7031000000 12.8992000000 -1.0256300000 -0.0793850000 -0.0727430000
Ga 0.0694400000 2.0261700000 15.3896000000 -0.5553420000 -0.4081950000 0.5540930000
Ga 3.0770100000 7.2596400000 15.3882000000 1.0656630000 0.7972360000 -0.9371570000
Ga 0.1154500000 12.5519000000 15.4227000000 -0.8056910000 1.1525230000 0.6692900000
Ga 1.6087000000 9.9763100000 15.3956000000 -1.1395260000 -0.3011690000 1.2270620000
Ga 1.5272300000 4.6728400000 15.4505000000 0.7403940000 1.0524790000 1.0130210000
Ga 1.6240000000 15.2622000000 15.3257000000 0.1974770000 0.0384300000 -0.8043230000
Ga 0.1037700000 14.3319000000 17.8473000000 1.6497730000 -0.7152080000 -4.0464670000
Ga 0.0790600000 3.7083200000 18.0104000000 0.1989230000 0.8025460000 -3.2639720000
Ga 0.0931800000 8.9772500000 17.8876000000 -0.6594290000 -0.0117480000 1.5319540000
Ga 1.6977800000 11.6288000000 18.0880000000 0.6421600000 0.3104130000 -2.2558350000
Ga 1.5754700000 6.4080400000 17.9110000000 0.4147790000 -1.1215610000 -3.2705410000
Ga 1.6159700000 1.0403700000 17.8186000000 0.0499980000 0.8185410000 0.6368130000
O 0.1123300000 1.9537900000 7.1798400000 -0.4245470000 0.5250790000 -1.0700770000
O 0.0807000000 12.6805000000 7.1777600000 -0.3935370000 -0.6700730000 -0.1613110000
O 0.0622000000 7.3008100000 7.1221500000 0.3428860000 1.5424980000 -0.2959230000
O 1.5380200000 15.3364000000 7.2798100000 1.1608680000 -0.3232930000 -0.8257700000
O 1.5481500000 10.0410000000 7.1373600000 0.1252670000 -1.3144830000 -1.7780230000
O 1.5974500000 4.6759500000 7.1652100000 -1.3367330000 -0.6630110000 -0.6081300000
O 3.0521900000 14.3773000000 9.7991700000 -0.3812200000 0.0030150000 -1.3181140000
O 0.0299400000 3.8278900000 9.6933200000 -0.4436310000 -0.0528810000 -0.9987720000
O 3.0111600000 9.0589900000 9.5998600000 -0.1678160000 0.8776830000 -0.4595910000
O 1.5564200000 1.0745100000 9.8014800000 0.7983660000 0.2108240000 -1.4970720000
O 1.5275800000 6.3566000000 9.6396500000 0.1721090000 -0.3678070000 -1.3600180000
O 1.5542600000 11.7230000000 9.6895500000 0.1707270000 0.5475970000 -0.9616490000
O 0.0234300000 0.2254800000 12.3191000000 -0.2051960000 0.3721670000 -0.7831150000
O 0.0322100000 5.5688800000 12.2375000000 0.0235650000 -0.1122670000 -0.7742710000
O 3.0320400000 10.8679000000 12.1887000000 0.7506360000 -0.2082760000 -1.1932810000