120
lattice="12.4857782130 0.0000000000 0.0000000000 0.0000000000 9.2759407870 0.0000000000 -2.7873528650 0.0000000000 11.4487550590" Properties=species:S:1:pos:R:3:force:R:3 energy=-732.5222458700 virial="-12.3710008678 -4.0712466542 -0.9043288276 -4.0712466542 -18.2508637970 -3.2083889557 -0.9043288276 -3.2083889557 -19.0209721551"
Ga 0.0108900000 6.2627000000 4.3936900000 -0.4248270000 -1.3254650000 1.5687850000
Ga 11.1866000000 6.1797000000 1.2453200000 -1.3978990000 -0.3365870000 -0.7839820000
Ga 6.2314000000 7.8182500000 4.5939600000 -1.0606270000 -0.6807860000 0.0108190000
Ga 4.8541800000 7.7789400000 1.2503600000 -0.0879370000 0.2010820000 -1.2876570000
Ga 3.2839600000 6.1641600000 3.8982000000 1.1242160000 -0.1414900000 0.6954480000
Ga 7.6625100000 6.1440800000 1.8450800000 1.4025780000 0.1387910000 -0.4421670000
Ga 9.5189800000 7.7296200000 3.9025100000 -0.0798780000 0.1282350000 0.7816410000
Ga 1.5538200000 7.6363200000 1.8744700000 0.6596390000 0.8823790000 -1.1971270000
Ga -1.3044700000 6.1282000000 10.3118000000 0.4361620000 -0.9465180000 -0.0102410000
Ga 9.8199200000 6.1673300000 6.8978400000 -1.3888930000 -0.1689230000 0.2638710000
Ga 4.9110500000 7.7313200000 10.2837000000 -1.3848610000 0.0582240000 -1.0661780000
Ga 3.5274200000 7.6435900000 6.9054200000 -0.8549250000 2.4619310000 -0.2047620000
Ga 1.9536000000 6.3079200000 9.5643700000 -0.3799690000 -1.1171680000 0.2099430000
Ga 6.3629700000 6.1873900000 7.5845400000 1.1130490000 -0.0467120000 -0.3787130000
Ga 8.2580600000 7.6681500000 9.6179700000 0.1071500000 -0.2262430000 0.4770540000
Ga 0.1635000000 7.8056700000 7.4227400000 -0.1200580000 -0.1154280000 -0.0927550000
Ga 0.0202700000 0.0308600000 4.4681300000 0.1667450000 0.9588730000 0.4287390000
Ga 10.9917000000 9.2209900000 1.2232000000 0.8329830000 0.1084730000 -0.0019170000
Ga 6.1866900000 1.5447800000 4.3586900000 1.2298200000 -0.3526220000 1.8770850000
Ga 4.7874000000 1.6194000000 1.1542300000 -0.6253110000 -0.7814910000 0.2329270000
Ga 3.2765900000 0.0554300000 3.9074300000 -0.7978790000 -0.2548960000 0.5200730000
Ga 7.6901000000 9.2160900000 1.8503800000 -0.4461570000 1.2021940000 -1.1030440000
Ga 9.5591600000 1.5412900000 3.9248000000 -0.1041600000 0.3757380000 0.5208100000
Ga 1.4645500000 1.4363500000 1.6505800000 0.7050640000 0.3933470000 0.2880670000
Ga -1.3264300000 9.1922300000 10.2069000000 -0.7924380000 -0.9015820000 0.8857760000
Ga 9.6302800000 9.2576700000 6.9072000000 0.8546950000 0.2227920000 0.6862650000
Ga 4.9124800000 1.4891100000 10.2130000000 -2.1759860000 -0.3981470000 -0.9930770000
Ga 3.3483100000 1.5972100000 6.9610500000 0.6049310000 -1.0670360000 -0.1081840000
Ga 1.8002100000 9.2435300000 9.6443400000 0.7579950000 1.1188500000 0.0712640000
Ga 6.5178900000 0.0233900000 7.5666000000 -1.6093160000 0.9180480000 -0.8683780000
Ga 8.2151300000 1.4909900000 9.7186400000 0.0303650000 1.2583110000 -0.1600980000
Ga 0.0782500000 1.6680400000 7.5224100000 0.1506030000 -0.7327290000 0.1004200000
Ga 0.1264900000 3.1596700000 4.5457000000 -0.7086950000 -0.7846880000 -0.3227890000
Ga 11.0013000000 3.0390600000 1.2423500000 0.7408720000 1.4089260000 -0.2728190000
Ga 6.2489200000 4.6493000000 4.5887900000 0.2102470000 0.0083830000 0.0275820000
Ga 4.8307900000 4.7058000000 1.1652100000 0.8030180000 -0.5721220000 -0.3305900000
Ga 3.3293800000 3.0994000000 3.8905500000 0.0020440000 -0.4572870000 0.0819810000
Ga 7.8197900000 3.0378600000 1.6282300000 -0.2325480000 0.3354720000 0.4756920000
Ga 9.4754900000 4.7100400000 3.8765700000 0.9508370000 -0.8045070000 0.4333970000
Ga 1.5539500000 4.5724000000 1.8404500000 -0.3038850000 -0.7117890000 -1.1632040000
Ga -1.4552200000 3.0164000000 10.3390000000 0.4694850000 -0.0922430000 -1.2803740000
Ga 9.6537200000 3.1127200000 6.8632300000 -1.2440240000 -1.1290390000 0.0883530000
Ga 4.7724000000 4.5624200000 10.2253000000 0.6275440000 0.0162190000 0.1673790000
Ga 3.4090300000 4.6102200000 6.8999700000 0.1947420000 0.0247460000 0.1783250000
Ga 1.7993500000 3.0935400000 9.7127900000 0.4314420000 0.3463000000 -0.5393470000
Ga 6.3576400000 3.0964600000 7.6053000000 0.7090300000 -0.1161140000 -1.0903050000
Ga 8.1666300000 4.6035100000 9.7174500000 0.7806830000 0.6599780000 -0.2149580000
Ga -0.0280400000 4.7243900000 7.4802900000 2.8903440000 -0.7775670000 0.9151150000
O 1.8378600000 6.1830700000 0.6614600000 0.4675650000 -0.6843930000 0.1563460000
O 9.3345900000 6.1426500000 5.1235300000 -0.5204340000 0.7395220000 -0.3804550000
O 7.9365000000 7.7238200000 0.6380400000 0.6319470000 -0.1499370000 0.0850810000
O 2.9461200000 7.6782700000 5.0841500000 -0.3510110000 0.4000620000 0.1779870000
O 5.8609200000 6.2482800000 1.4187000000 -0.7918370000 -0.9369420000 0.1017460000
O 5.2176100000 6.1576400000 4.3318000000 0.6144540000 1.0791720000 -0.2678800000
O -0.3513800000 7.7047300000 1.4657900000 -0.3899660000 1.0126970000 0.3137550000
O -0.9890800000 7.7990500000 4.2120600000 0.0440880000 -0.3686780000 -0.2210450000
O 9.6956000000 6.2999400000 2.5562500000 0.1868190000 -0.6329470000 -0.9652190000
O 1.4367800000 6.0254100000 3.1664800000 -0.6049580000 1.2242910000 0.9688030000
O 3.5531400000 7.6246300000 2.5244800000 -1.4347030000 0.4188560000 0.4535000000
O 7.5084900000 7.8352300000 3.1863400000 0.0432220000 -1.0055220000 1.4111490000
O 0.3722200000 6.1339800000 6.3176600000 0.1809540000 1.5444780000 -1.4227610000
O 7.8780900000 6.1744900000 10.8652000000 -0.0968210000 0.3453500000 0.0880550000
O 6.7039600000 7.8221600000 6.3887000000 0.3142820000 -0.8091870000 -0.5665470000
O 1.6821700000 7.7740200000 10.8539000000 -0.4889400000 -0.8312990000 0.2243020000
O 4.4990700000 6.1693800000 7.1460600000 -0.3973640000 -1.1539690000 0.0805910000
O 3.9014700000 6.1204000000 9.7955600000 0.2056000000 1.1566690000 0.5190510000
O 10.6898000000 7.7124400000 7.1006900000 0.5603780000 1.4388230000 0.2020800000
O -2.2834400000 7.5417000000 9.8443700000 -0.7694450000 2.5946660000 0.2120470000
O 8.4414100000 6.1982000000 8.2131600000 -0.8256060000 -0.0882430000 -0.0161050000
O -0.0173600000 6.2442500000 8.9207700000 0.3553740000 -0.5175790000 0.0580410000
O 2.0392400000 7.8698700000 8.2013200000 0.4651410000 -1.2232400000 -0.9556200000
O 6.2938600000 7.7486700000 8.9256200000 -0.2766280000 -0.2151480000 0.9216600000
O 2.0155400000 9.1215300000 0.5707600000 -0.5729540000 0.6331710000 -0.0912500000
O 9.1713300000 0.0128400000 5.1658800000 -0.2283710000 -0.2691730000 -1.9594670000
O 8.0475300000 1.5022600000 0.5090900000 0.8801280000 -0.3623340000 1.5601660000
O 2.9778100000 1.6423700000 5.1126900000 -0.2852910000 -0.6947180000 0.4347720000
O 5.7325700000 0.0697000000 1.6039500000 0.3502950000 0.3229720000 -0.1594760000
O 5.1034900000 0.0625900000 4.2789700000 1.7041310000 -0.9171320000 0.2158640000
O 12.0383200000 1.5367800000 1.3725100000 -0.3594930000 -1.0284970000 0.4253390000
O -0.9683300000 1.5658400000 4.1757300000 -0.1369070000 0.5032450000 -0.0937850000
O 9.5628300000 9.1800200000 2.4654200000 1.4088880000 0.6779200000 0.1031610000
O 1.3578800000 0.0345900000 3.0883100000 -0.1348620000 -1.2493410000 1.1149910000
O 3.3336600000 1.5305400000 2.5749300000 1.9300820000 0.2714750000 -1.8526220000
O 7.6296300000 1.5959000000 3.0939900000 -0.1996000000 -0.4831330000 0.7184210000
O 0.4281100000 0.1653000000 6.2793400000 0.2666780000 -1.0744500000 0.2219500000
O 7.9811600000 0.0163200000 10.8600000000 -0.7622920000 -1.3671660000 -0.1083570000
O 6.7003400000 1.5860900000 6.2987900000 0.0832330000 -0.2919200000 -0.1164910000
O 1.5468500000 1.5425200000 10.8050000000 -0.4274480000 -0.2462860000 0.8692160000
O 4.4081400000 0.0000700000 7.2368700000 -0.1392770000 0.2555960000 -0.1739120000
O 3.7093400000 9.2655500000 9.9651800000 2.4362650000 -0.1831690000 0.3536700000
O 10.6404000000 1.5524000000 7.1239000000 -0.1397970000 0.0576930000 0.3037640000
O -2.3462800000 1.4566200000 10.0196000000 -0.1501100000 -0.3462740000 -0.2493840000
O 8.3554600000 0.0690000000 8.3088900000 0.4692490000 -0.7997970000 -0.7127560000
O -0.0412000000 9.1806700000 8.9053100000 0.2324990000 0.6111220000 -0.3335530000
O 1.9610700000 1.6826700000 8.2610500000 0.5553400000 -0.7948210000 -0.7231210000
O 6.2882400000 1.4800500000 8.9901500000 0.0110930000 0.3192230000 -0.1485150000
O 1.8313100000 3.0450700000 0.5903900000 0.7482740000 -0.2009620000 1.6928900000
O 9.2194700000 3.1094300000 5.0369600000 -0.1013920000 0.2091270000 0.7444390000
O 8.2103700000 4.6430300000 0.5761200000 -0.5949080000 -0.1016880000 -0.0018950000
O 2.9984100000 4.5695300000 5.0899600000 -0.2562890000 0.6053690000 -0.3600510000
O 5.8749200000 3.0861300000 1.3305500000 -0.3809450000 1.0284540000 0.4793200000
O 5.3223600000 3.0848200000 4.2209100000 -1.0997500000 1.2353460000 -0.5288040000
O 12.0944400000 4.6310000000 1.4048500000 -0.0535970000 -1.1354540000 0.4799110000
O -0.9242900000 4.6459900000 4.1332600000 -0.1572570000 0.4388270000 0.2143180000
O 9.6753100000 3.1361900000 2.5722200000 0.0934340000 -0.4215930000 -1.3448980000
O 1.3963800000 2.9537600000 3.1391200000 -0.4018550000 1.3948010000 0.7403050000
O 3.5230000000 4.6421400000 2.4494900000 -0.6487940000 -0.3870960000 0.6371800000
O 7.6195600000 4.7155700000 3.2254400000 -0.5248600000 0.0276610000 0.0540160000
O 0.4986800000 3.1161800000 6.3678600000 -0.2995400000 0.8105130000 -0.4616330000
O 7.8976500000 3.1226000000 10.8590000000 -0.4291990000 -1.0668980000 0.3364130000
O 6.7370800000 4.6922400000 6.3645700000 0.1632340000 -0.3466200000 0.4043690000
O 1.6055200000 4.6741000000 10.8415000000 -0.2207060000 0.3196480000 -0.8067340000
O 4.4695600000 3.0911100000 7.2119400000 -0.5027280000 0.2759110000 0.0683590000
O 3.8003800000 3.0099000000 9.9244100000 0.7305750000 0.3759880000 0.1045980000
O 10.6730000000 4.5722700000 7.2107200000 -0.8328050000 0.2987410000 0.0521760000
O -2.2883300000 4.5787200000 10.0662000000 -1.1032340000 0.7609160000 -0.7024060000
O 8.2783100000 3.0830900000 8.3013000000 0.8960380000 -0.0496410000 -0.8871450000
O -0.0697000000 2.9633200000 9.0495100000 -0.2769100000 0.8936800000 -0.4772760000
O 2.0136000000 4.6983700000 8.1442000000 -0.1652430000 0.1145570000 0.4816820000
O 6.3185000000 4.6629100000 8.9853200000 -1.2611410000 -0.1494020000 0.2295320000
120
lattice="12.4857782130 0.0000000000 0.0000000000 0.0000000000 9.2759407870 0.0000000000 -2.7873528650 0.0000000000 11.4487550590" Properties=species:S:1:pos:R:3:force:R:3 energy=-732.9218959900 virial="-20.1446816835 0.7193018799 4.5730795935 0.7193018799 -12.9155794432 0.9116531041 4.5730795935 0.9116531041 -15.0136411925"
Ga -0.0899800000 6.1720100000 4.5761500000 1.2222780000 1.2905520000 -0.2925310000
Ga 10.9623000000 6.2119800000 1.2342100000 0.4784630000 0.1790410000 -0.1364600000
Ga 6.3071900000 7.7901100000 4.5396200000 0.3158340000 1.1280490000 -0.3029240000
Ga 4.7811900000 7.7597300000 0.9657000000 0.2040390000 -0.9383080000 2.3995940000
Ga 3.3622000000 6.2079800000 3.8973400000 -0.5422160000 0.6237650000 0.2531200000
Ga 7.7610000000 6.1411500000 1.6483000000 0.1067070000 0.5844810000 0.9394370000
Ga 9.5174000000 7.7582500000 4.0129700000 -1.1890230000 -0.4500810000 -1.0013530000
Ga 1.4957900000 7.7567400000 1.7145200000 -0.0791420000 -0.0068030000 1.1765130000
Ga -1.4183500000 6.0634800000 10.2593000000 -0.3026750000 1.5811910000 -1.2878730000
Ga 9.5497000000 6.2150200000 6.9578300000 2.3492360000 0.7547840000 0.8422030000
Ga 4.8986700000 7.6433900000 10.2483000000 0.0693100000 -1.0832400000 -0.4693500000
Ga 3.4775800000 7.6348600000 6.8592900000 -0.4196360000 -0.0029700000 -0.5453700000
Ga 1.8175400000 6.0860800000 9.6298700000 0.5799700000 0.5040750000 0.2057930000
Ga 6.4218600000 6.1345500000 7.5373900000 -0.1840800000 1.1459960000 0.9974980000
Ga 8.1597700000 7.7682800000 9.8078200000 0.0303330000 -0.9239000000 -0.5823540000
Ga 0.1858400000 7.8033500000 7.4998800000 -1.1160730000 -0.5205030000 -0.6413450000
Ga -0.1386400000 0.0300000000 4.4726200000 0.3367850000 0.1104080000 0.5974440000
Ga 11.2536000000 0.0670900000 1.1658200000 -1.9159480000 0.3578870000 -0.2673420000
Ga 6.2946600000 1.6854600000 4.6152500000 -0.6885560000 -0.4220700000 -0.8793560000
Ga 4.8776900000 1.4634000000 1.1026200000 -0.2791800000 1.3885010000 0.2898110000
Ga 3.4023200000 9.2688100000 3.8801600000 -0.0567170000 0.6417480000 0.1169080000
Ga 7.8698100000 0.0266400000 1.6973900000 -0.3050150000 -0.5243150000 0.7499660000
Ga 9.4980500000 1.5876300000 3.8810600000 -0.0445620000 -0.1120410000 0.2130140000
Ga 1.5382700000 1.5836000000 1.9865400000 -0.0630010000 0.2805070000 -0.9305720000
Ga -1.3194900000 9.2139700000 10.3508000000 0.0779880000 1.3082960000 -1.7550780000
Ga 9.6520600000 0.0916300000 6.9114400000 0.8055150000 -0.3882160000 -0.2283100000
Ga 4.7998600000 1.4324500000 10.2501000000 1.0450650000 1.1230930000 0.5357500000
Ga 3.4745200000 1.3717900000 6.8539900000 -0.6091490000 1.6367310000 -0.1513830000
Ga 1.9887500000 9.2601200000 9.4815300000 -0.6433800000 0.1330460000 0.3685140000
Ga 6.3589600000 9.2189400000 7.4670200000 0.5115940000 0.7537700000 0.9219200000
Ga 8.2069700000 1.4632500000 9.6268600000 0.2679710000 0.6067000000 -0.1638410000
Ga 0.1336500000 1.5363200000 7.4268700000 -0.7572440000 -0.0816190000 -0.3414240000
Ga -0.1148300000 3.2106400000 4.5325600000 1.1218100000 -1.6683210000 0.3929590000
Ga 11.0762000000 3.1280700000 1.1561500000 -0.0223680000 0.2510980000 0.1212540000
Ga 6.3416800000 4.7602500000 4.6195200000 -0.4774850000 0.8504140000 -1.1840620000
Ga 4.8025500000 4.6360400000 1.2111600000 -0.8075980000 1.0825490000 -1.1389720000
Ga 3.4017000000 3.2038400000 3.9896000000 -0.5712260000 -1.2612490000 -0.1970790000
Ga 7.6399000000 3.0975700000 1.8929100000 0.5158550000 0.4561650000 -0.5469920000
Ga 9.4837900000 4.6246800000 3.9805700000 -0.5282380000 -0.0886240000 0.0610790000
Ga 1.5153300000 4.7071900000 1.7970100000 -0.1711480000 -0.5960400000 0.1408750000
Ga -1.2795700000 3.0282700000 10.2289000000 -0.7876050000 -0.0497510000 0.5300160000
Ga 9.6367100000 3.2411100000 6.9692000000 0.4785100000 -1.0581540000 0.0970690000
Ga 4.7521000000 4.5109900000 10.2297000000 -0.0211420000 1.1182650000 0.0355910000
Ga 3.5303900000 4.5353900000 6.9003400000 -0.6678520000 -0.0107260000 0.0118430000
Ga 1.8960200000 3.0338700000 9.5589200000 0.0094420000 0.5366260000 -0.0466460000
Ga 6.3389100000 3.0286700000 7.5240700000 0.7984310000 0.0654040000 0.4834710000
Ga 8.1573200000 4.5431400000 9.6736200000 -0.4140910000 0.8993530000 0.3297630000
Ga 0.2089800000 4.6428400000 7.4628400000 -0.4229150000 -0.5233900000 -0.0973110000
O 1.7479800000 6.2384300000 0.5712100000 0.8403950000 -0.3776310000 0.8052040000
O 9.1035300000 6.1851400000 5.2189000000 -0.4542220000 0.0156980000 -1.5618910000
O 8.1210900000 7.7012400000 0.5831300000 0.1387470000 0.1990260000 -0.0183380000
O 3.0565100000 7.7715800000 5.0320400000 -0.1511410000 -0.4837630000 0.9406630000
O 5.8379100000 6.1825200000 1.3766600000 -0.9428240000 0.5409490000 0.1375220000
O 5.2850300000 6.3275100000 4.3769500000 -0.1492570000 -1.6885300000 -0.7223420000
O 12.0080000000 7.7869600000 1.4574300000 1.0338060000 -2.0654370000 0.6388390000
O 11.3625100000 7.7182200000 4.3293400000 0.9462680000 -0.0657410000 -0.4265500000
O 9.6182400000 6.1617900000 2.5629700000 -0.0830480000 0.2258350000 -0.1526900000
O 1.3799000000 6.2005700000 3.2826800000 -0.7520510000 -0.0607370000 -0.2077280000
O 3.3683400000 7.7840400000 2.4729500000 1.1559010000 -0.3983120000 -1.1315860000
O 7.5662800000 7.9140500000 3.1773900000 1.1683840000 -0.9192890000 0.0807640000
O 0.4607100000 6.1555400000 6.3345500000 0.4404000000 0.6141480000 -0.1617550000
O 7.6437800000 6.1869700000 10.9055000000 0.5553820000 -0.3351300000 -0.1924610000
O 6.6779300000 7.7632000000 6.3576100000 0.7011040000 -0.9246140000 0.3907610000
O 1.4650700000 7.7322100000 10.7217000000 -0.1449590000 0.0598050000 -1.0663620000
O 4.4742100000 6.1050700000 7.1722500000 -0.1745620000 0.2678030000 0.4004220000
O 3.7467400000 6.1487600000 9.9600500000 1.0119040000 -0.1675420000 -0.0040060000
O 10.7259000000 7.7958700000 7.1480000000 -1.3585960000 -0.4775470000 0.0237140000
O -2.4127000000 7.8203400000 10.0556000000 0.4240400000 -2.5910350000 -0.2290660000
O 8.4204000000 6.1443200000 8.4144000000 -1.0096650000 -0.1325860000 -0.6852990000
O 0.0210100000 6.1057300000 8.9051800000 -0.9388740000 0.4197520000 0.6683800000
O 2.0398500000 7.8516600000 8.1041900000 0.7645030000 -0.9129290000 -0.0113850000
O 6.3259600000 7.6002400000 8.9933500000 -0.7293430000 0.1723470000 -0.3085330000
O 1.7749900000 0.0477700000 0.6607800000 0.5550810000 0.1200630000 1.0202740000
O 9.1832700000 0.0226800000 5.0522400000 -0.1611660000 0.4999240000 0.6359710000
O 8.0257100000 1.6437000000 0.6500700000 -0.1810250000 -0.5505780000 -1.0035000000
O 3.1102200000 1.5585400000 5.0939500000 -0.2679340000 0.0894050000 -1.4106180000
O 5.8009900000 9.2009000000 1.4482900000 0.5749270000 0.4252240000 -0.2312230000
O 5.3532100000 0.0686000000 4.3459700000 -0.6464940000 0.7617620000 -0.2671710000
O 12.0610300000 1.6061000000 1.4857600000 1.1830980000 0.9418040000 0.5721730000
O 11.3889700000 1.6243300000 4.3234700000 0.2166100000 -0.0615050000 -0.2936290000
O 9.7542200000 0.0341300000 2.3335600000 -0.6032140000 0.2943680000 1.0450390000
O 1.3210200000 0.0349900000 3.3158000000 0.1913570000 0.2463970000 -0.8659400000
O 3.5311400000 1.4835400000 2.4353500000 -0.5609850000 0.4336790000 0.5547560000
O 7.5246800000 1.6243000000 3.1797200000 0.7666000000 -0.1432640000 0.4561580000
O 0.4358900000 9.2691600000 6.2381400000 0.0338570000 0.3019340000 0.3113200000
O 7.9065300000 0.0454200000 10.8529000000 -0.6940800000 -0.0784510000 0.2327530000
O 6.8376300000 1.5576200000 6.3434500000 -0.1566840000 -0.1087210000 0.9980630000
O 1.6460300000 1.5473600000 10.7282000000 0.0050560000 -0.9020690000 0.3095720000
O 4.4154900000 9.1859500000 7.2207600000 0.8113870000 -0.7812980000 0.2346110000
O 3.9510300000 9.1697200000 9.9339700000 -1.8116160000 -0.3373400000 -0.1042030000
O 10.6199000000 1.6615800000 7.1640300000 0.5704490000 -0.3386160000 0.1062820000
O -2.3148800000 1.5055300000 9.9700100000 0.2601990000 0.0007630000 0.0301090000
O 8.3561000000 0.0215700000 8.2619400000 -0.5626070000 -0.3111270000 -0.4931710000
O -0.0379900000 9.2620100000 8.8881700000 0.2814310000 0.2350690000 0.5936000000
O 2.0233700000 1.5232700000 8.0356200000 0.6855200000 -0.2472640000 1.1213010000
O 6.1418900000 1.2823100000 8.9484800000 0.8361340000 1.2212830000 -0.1625600000
O 1.8734300000 3.1108400000 0.6197900000 0.2199220000 0.1422930000 0.4865430000
O 9.0366200000 3.0616200000 5.2480300000 0.1120890000 0.7906860000 -1.7216310000
O 8.0446800000 4.6141500000 0.5613000000 0.1233520000 -0.6653940000 0.3579500000
O 3.0381900000 4.6634000000 5.0999200000 -0.3153450000 0.5239340000 0.7872230000
O 5.7177300000 3.1788600000 1.6141600000 0.4297870000 -2.3676970000 -0.4353310000
O 5.2964900000 3.2946200000 4.3929200000 0.0787920000 -1.5387500000 -0.3930060000
O 12.0787300000 4.7094400000 1.4296200000 -0.7232730000 -0.2410710000 0.1909560000
O 11.3912700000 4.7049200000 4.2578700000 -0.3895680000 -0.2793470000 -0.1147370000
O 9.7605200000 3.1284100000 2.5765700000 -0.5382010000 0.0419930000 -0.4534550000
O 1.3133900000 3.1410000000 3.2505700000 0.4930540000 0.0295350000 0.0148140000
O 3.4439200000 4.7118900000 2.5605300000 0.2586860000 -0.2018520000 -0.8036400000
O 7.6012500000 4.6084300000 3.2201400000 0.0210270000 0.5559350000 0.2005890000
O 0.5939500000 3.0532200000 6.2804000000 -0.6355100000 0.8730070000 -0.3563920000
O 7.8965400000 3.0185000000 10.7794000000 -0.6290690000 -0.0551540000 1.1051490000
O 6.6992000000 4.7355900000 6.3688500000 0.8634020000 -1.2263280000 1.1217080000
O 1.5476700000 4.5852400000 10.7760000000 0.0082220000 -0.3175510000 1.2655490000
O 4.4958800000 2.9512600000 7.0792800000 -0.5328010000 0.3503220000 0.4525890000
O 3.8306400000 2.9698300000 9.8758700000 -0.2471210000 0.0154370000 -0.0140960000
O 10.7336000000 4.7033500000 7.1796600000 -0.6648410000 0.2477770000 -0.0302860000
O -2.4198000000 4.5546500000 10.0323000000 0.7640680000 -0.1286420000 -0.1794430000
O 8.3306900000 3.0994300000 8.3152100000 -0.6929890000 -0.1826900000 -0.8745720000
O 0.0254700000 3.0749100000 8.8608200000 -0.2528110000 -0.0915190000 0.3728810000
O 2.0760800000 4.6099100000 8.2245800000 0.9402260000 -0.1579690000 -0.8800290000
O 6.1490300000 4.4525300000 8.9700200000 0.4528370000 0.5748910000 -0.3190560000
120
lattice="12.4857782130 0.0000000000 0.0000000000 0.0000000000 9.2759407870 0.0000000000 -2.7873528650 0.0000000000 11.4487550590" Properties=species:S:1:pos:R:3:force:R:3 energy=-732.0547822500 virial="-5.8493740768 0.4749855351 -0.0082925706 0.4749855351 -16.6159777042 0.3510935367 -0.0082925706 0.3510935367 -14.1518924806"
Ga 0.0924000000 6.2675100000 4.5585800000 -1.0254390000 -0.5776640000 -0.1097000000
Ga 11.0215000000 6.2200100000 1.2339400000 1.3035400000 0.5961540000 -0.8457740000
Ga 6.3200400000 7.7861800000 4.3997500000 -0.8933260000 -0.2200890000 0.7336580000
Ga 4.8026000000 7.6455000000 1.1664700000 1.2579090000 -0.0745380000 -0.2343930000
Ga 3.2472500000 6.2519900000 3.9082200000 1.4526400000 -0.6363950000 0.2682950000
Ga 7.7520900000 6.2270100000 1.8180500000 -0.0719860000 -1.0019260000 -0.7240850000
Ga 9.4839100000 7.7529900000 3.9265100000 1.0743540000 0.3814940000 0.7763490000
Ga 1.5009700000 7.8211500000 1.8917800000 -0.2262900000 -0.0807380000 -1.5495780000
Ga -1.4748700000 6.1973500000 10.1745000000 0.5030660000 0.8694900000 0.4376180000
Ga 9.5858200000 6.2281400000 6.9489700000 1.1421950000 0.1974680000 -0.3343610000
Ga 4.7931800000 7.6641200000 10.2185000000 -0.3695790000 0.3370090000 0.7749200000
Ga 3.3613600000 7.6465000000 6.9550000000 0.1765270000 0.9124260000 -0.5636000000
Ga 1.8637400000 6.0761000000 9.6430900000 0.3041680000 0.0081050000 0.1238260000
Ga 6.3292400000 6.1952700000 7.5641000000 -0.0203070000 -0.3900480000 -1.5370710000
Ga 8.1656300000 7.6804600000 9.6772700000 -0.2785590000 0.9104120000 0.4503380000
Ga 0.0126700000 7.6166000000 7.5143100000 1.4492180000 1.0390200000 0.5917820000
Ga -0.0501100000 0.0246600000 4.5808800000 0.6331070000 -0.8892300000 -0.3232110000
Ga 11.1717000000 0.0660000000 1.2343500000 -2.0392470000 0.5761180000 -0.7632760000
Ga 6.3468900000 1.5453600000 4.6782400000 -1.1172820000 0.3907760000 -1.3491210000
Ga 4.7707500000 1.4652900000 1.1714300000 0.8421440000 1.1629940000 -0.4588920000
Ga 3.4635600000 9.2727000000 3.7842000000 -1.6486420000 -0.0890800000 1.4409650000
Ga 7.7839900000 9.2462600000 1.6588000000 0.2574830000 0.3709000000 0.3411190000
Ga 9.4773300000 1.5682600000 3.9247400000 0.3346690000 0.0729320000 0.1162260000
Ga 1.6136100000 1.6859200000 1.8399300000 -1.5906940000 -1.2550870000 -0.2336550000
Ga -1.3523200000 0.0640000000 10.2010000000 -0.7098530000 0.1407310000 0.0754820000
Ga 9.7012400000 0.0745600000 6.9441700000 -0.5889000000 -1.0076330000 -0.0459920000
Ga 4.9185800000 1.5095700000 10.2187000000 -1.2085280000 0.3077590000 1.4577320000
Ga 3.5532500000 1.5258800000 6.7500800000 0.2467840000 -0.3478640000 1.9939760000
Ga 1.9078200000 9.2094300000 9.5859300000 0.1862020000 0.1942430000 0.4143420000
Ga 6.4062800000 9.1631600000 7.6279300000 -0.6027070000 -0.0632240000 -1.5825490000
Ga 8.1336000000 1.5551500000 9.6157500000 -0.1513550000 -0.5943920000 1.1783100000
Ga 0.2085600000 1.4999500000 7.4770200000 -0.1990390000 0.8242910000 0.6509990000
Ga -0.1093700000 3.0428900000 4.4818900000 1.1006830000 0.9977170000 1.2363330000
Ga 11.1198000000 3.1068400000 1.2445400000 -0.7910070000 0.5056990000 -0.5669840000
Ga 6.2168300000 4.6616800000 4.5341600000 -0.6255990000 1.2627600000 -0.9737940000
Ga 4.7365900000 4.5966200000 1.1842600000 0.7732930000 0.4792780000 -1.1241070000
Ga 3.3066900000 3.1175200000 3.9585400000 0.2776700000 0.4563830000 0.5419050000
Ga 7.6662200000 3.1609600000 1.8783500000 -0.1398370000 -0.9883370000 -0.6773880000
Ga 9.5363600000 4.7015100000 3.9027500000 0.3478630000 -0.5036960000 0.7626740000
Ga 1.4752900000 4.7139800000 1.7836000000 1.2239820000 0.5615250000 -0.0597500000
Ga -1.3330500000 3.0553900000 10.3124000000 -0.1652160000 -0.2175700000 -1.7749100000
Ga 9.6844800000 3.1321200000 6.9531800000 0.5539000000 -0.0819310000 -0.1780930000
Ga 4.9083400000 4.5952400000 10.2870000000 -0.3604870000 -0.3120350000 0.1184600000
Ga 3.4873500000 4.5943500000 6.9166900000 -0.6713540000 -0.2712180000 -0.1788810000
Ga 2.0027100000 3.0129500000 9.5367300000 0.3367190000 0.1515590000 0.2387650000
Ga 6.4397800000 3.0788600000 7.5812100000 -0.6947890000 0.0205890000 -0.8810430000
Ga 8.1501600000 4.6398000000 9.7045900000 0.5025130000 -1.8539630000 -0.6772440000
Ga 0.0730800000 4.5429600000 7.4148100000 0.7596370000 0.4595750000 0.8509680000
O 1.8776300000 6.2518300000 0.5290300000 -0.3728300000 -0.1715880000 0.5872350000
O 9.2285000000 6.1775400000 5.1699800000 -0.1350560000 0.4557240000 -1.5366080000
O 8.0698400000 7.6690800000 0.5770500000 0.3556620000 0.3118530000 -0.1574170000
O 3.0550600000 7.7302900000 5.0698700000 -0.4288700000 0.6025660000 0.7334750000
O 5.9121800000 6.0993800000 1.3822000000 -2.0498790000 0.5555530000 -0.1119570000
O 5.2913500000 6.3064000000 4.0805700000 -0.4639050000 -1.5387150000 0.1194760000
O 12.0345000000 7.8327600000 1.4620700000 0.8448240000 -2.4955950000 0.2684690000
O 11.4610300000 7.7337600000 4.1647500000 0.2967670000 0.0965300000 0.3886380000
O 9.6530300000 6.2475300000 2.4178000000 0.1731320000 -0.3572690000 0.9404400000
O 1.3955800000 6.2752800000 3.2011800000 -0.2476900000 -0.2358900000 0.0691940000
O 3.4711100000 7.6973100000 2.4519500000 -0.3847160000 0.6182150000 0.1761170000
O 7.7180200000 7.7283500000 3.1809100000 -0.6516310000 0.6238480000 -0.2657030000
O 0.4112400000 6.1854100000 6.3647000000 0.5589330000 -0.3672780000 -0.7888250000
O 8.0229400000 6.0751000000 10.8040000000 -0.5620820000 1.7795580000 1.1472120000
O 6.7002400000 7.6326000000 6.1685900000 0.2352910000 0.3058570000 2.2554220000
O 1.6521400000 7.6836400000 10.8320000000 -0.3185360000 -0.1068960000 -0.6513820000
O 4.4260700000 6.1533300000 7.2215800000 0.1411070000 0.0642990000 0.0119310000
O 3.9085500000 6.1043400000 9.9163300000 -0.5738350000 0.0111510000 -0.2063300000
O 10.7065000000 7.7780600000 7.2314900000 -2.4041620000 -0.5181140000 -0.6243480000
O 10.0441000000 7.8949400000 9.8570600000 0.8794670000 -2.3086240000 0.3039580000
O 8.1789900000 6.1714400000 8.1314200000 0.9822220000 0.1311580000 0.9194070000
O -0.0036200000 6.2006400000 8.9140800000 -1.4337800000 -0.7643860000 0.8454700000
O 1.9264500000 7.5255100000 8.2728000000 1.7972000000 1.5694440000 -1.2261390000
O 6.1905300000 7.7349300000 8.9883300000 0.4679700000 -0.4600210000 -0.3283500000
O 1.8378200000 0.0081900000 0.5351500000 0.4417650000 0.7355780000 1.3824510000
O 9.2070500000 0.0437700000 5.1348700000 -0.1330980000 -0.4419660000 0.0491360000
O 7.9869300000 1.5270600000 0.6434000000 0.2857820000 0.4339340000 -0.4101920000
O 2.9134600000 1.5948400000 5.1046000000 0.1913380000 -0.5306950000 -1.2670560000
O 5.8004200000 9.2491900000 1.4849500000 -0.2789580000 -0.7059380000 0.2250550000
O 5.2772300000 0.0484100000 4.1799300000 0.7689940000 0.2967930000 0.1742110000
O 12.1160500000 1.5781800000 1.4725700000 0.8808480000 1.0145090000 0.4948060000
O -0.9988700000 1.5148200000 4.2196200000 -1.0773660000 0.1407260000 -0.5294460000
O 9.6897300000 0.1548200000 2.5076800000 0.1093500000 -0.8250870000 -0.4956150000
O 1.3631100000 9.2584600000 3.2608800000 0.3036340000 0.1801650000 -0.1625630000
O 3.3609900000 1.5954500000 2.5754300000 1.8524440000 -0.4398650000 -1.4343150000
O 7.6004500000 1.5825200000 3.3188200000 0.1027010000 0.3741850000 -0.3754980000
O 0.3942400000 0.0226700000 6.3685000000 0.5076660000 -1.2648190000 -0.7653870000
O 7.8241500000 9.2332700000 10.8798000000 -0.3296390000 0.3747520000 -0.1963740000
O 6.6014400000 1.3810100000 6.4260400000 0.7332460000 0.9907270000 0.9467390000
O 1.6755500000 1.5086600000 10.7746000000 -0.6686720000 -0.4279170000 0.1149810000
O 4.4691200000 9.2085400000 7.1759500000 -0.7187310000 -0.4433690000 0.2396020000
O 3.8656300000 9.2512200000 10.0468000000 -0.0746440000 -0.1654910000 -0.6423680000
O 10.6708000000 1.5792800000 7.1437600000 0.4049230000 0.2043490000 0.5971680000
O 9.9835400000 1.5694900000 9.9556700000 2.1158070000 0.1099330000 0.2339740000
O 8.2418900000 9.1401900000 8.2767500000 0.7197980000 0.9373540000 -0.9827070000
O -0.0667600000 9.2471800000 8.8403200000 0.8148260000 0.3938200000 0.8871440000
O 2.2053000000 1.5725900000 8.1558200000 -0.7420910000 -1.0698960000 -0.1401440000
O 6.2618400000 1.6742400000 9.0055500000 0.6536630000 -0.9955820000 -0.5238580000
O 1.8082600000 3.1626700000 0.6292700000 0.5181110000 -0.1979480000 0.7663150000
O 9.3686500000 3.1085600000 5.1597300000 -0.6585400000 0.2495880000 -1.6321680000
O 7.9940200000 4.5693500000 0.6553500000 0.8457130000 1.0177670000 -0.3627810000
O 3.0395200000 4.7084400000 5.0681800000 0.0575980000 -0.2455250000 0.7186350000
O 5.7974500000 3.1093600000 1.2742000000 -0.5022140000 -1.3112670000 1.0122780000
O 5.3166800000 3.0985000000 4.1790300000 -0.5890730000 -0.7611760000 -0.0798380000
O -0.3680700000 4.7240500000 1.5346000000 -1.4006740000 -0.6519120000 -0.1154430000
O -0.9017800000 4.6844600000 4.3133100000 -1.0179460000 0.3151660000 -0.7019040000
O 9.5698500000 3.1498600000 2.4043300000 1.5271320000 0.1957750000 0.9570140000
O 1.4130100000 3.1297400000 3.3777800000 -0.5768470000 -0.0208070000 -1.4205510000
O 3.3981100000 4.6263300000 2.4860200000 -0.0531250000 0.2132260000 -0.2837280000
O 7.6091200000 4.8090700000 3.2518100000 0.2781720000 -1.0063360000 0.1936610000
O 0.4096600000 3.0381500000 6.3330200000 0.0264350000 -0.0945510000 -0.9723840000
O 7.8460700000 3.0808300000 10.8793000000 -0.0506010000 0.4136340000 -0.0851080000
O 6.6614500000 4.4933400000 6.2436100000 0.5265710000 0.6698160000 2.0767710000
O 1.6818900000 4.5154400000 10.7178000000 -0.5586020000 0.6788780000 1.3839460000