120
lattice="12.4857782130 0.0000000000 0.0000000000 0.0000000000 9.2759407870 0.0000000000 -2.7873528650 0.0000000000 11.4487550590" Properties=species:S:1:pos:R:3:force:R:3 energy=-724.0683614000 virial="2.8931140275 4.6216515467 -1.2692681434 4.6216515467 -2.1845792477 1.6181106031 -1.2692681434 1.6181106031 -9.8276396620"
Ga -0.1074700000 6.3682400000 4.6917700000 0.5767530000 -1.6869500000 -2.7835810000
Ga 10.8902000000 6.1104000000 1.2430600000 -0.2221410000 2.4473040000 -1.9886370000
Ga 6.1277500000 7.6131000000 4.3664000000 1.5117770000 -0.2269140000 1.1462490000
Ga 4.7183600000 7.9471300000 1.0508500000 -0.4918460000 -1.5715950000 1.9156590000
Ga 3.2972100000 6.0286400000 4.2207100000 -1.8213840000 0.2784870000 -2.7853390000
Ga 7.5742000000 6.2347000000 1.7480100000 1.4208790000 -0.2489850000 -0.8403560000
Ga 9.5775400000 7.8542900000 3.8505300000 -1.1386960000 0.2880300000 0.3075000000
Ga 1.4042800000 7.6223900000 1.8381200000 0.7054120000 0.4310900000 0.2059590000
Ga -1.3057700000 6.2175000000 10.3249000000 -1.3057800000 -1.0520150000 -0.6151070000
Ga 9.5672200000 6.1597400000 6.8998000000 1.7959510000 0.5149320000 -1.4479580000
Ga 5.1548600000 7.6733900000 10.2339000000 -2.3343370000 1.5725150000 2.7910630000
Ga 3.7522200000 7.4901600000 6.7297800000 -2.5734910000 3.2990130000 0.7459520000
Ga 2.0095200000 6.2090400000 9.6232400000 -0.2162160000 0.4882090000 -0.1700930000
Ga 6.4781100000 6.1649800000 7.3880500000 1.2749120000 -1.2284800000 1.5232430000
Ga 8.2480700000 7.7650900000 9.8106300000 -0.0157520000 -0.2171210000 0.0313270000
Ga 0.3894800000 7.6336300000 7.4446700000 -2.2601490000 1.4133890000 -0.4886450000
Ga -0.1934400000 0.1097800000 4.3555200000 2.2477810000 0.9682820000 0.9969210000
Ga 10.9188000000 9.1964000000 1.1916500000 0.8690010000 1.1121630000 0.0298860000
Ga 6.1867900000 1.4722000000 4.4742900000 2.0605140000 0.2163900000 1.5453990000
Ga 4.7380600000 1.7265600000 1.1381700000 -0.0986170000 0.6117400000 0.0123090000
Ga 3.4477700000 9.1829200000 3.8389600000 -1.7850660000 0.6872320000 0.2251780000
Ga 7.5610200000 0.1483000000 1.8141900000 0.9369180000 -1.6813890000 0.3900570000
Ga 9.3809800000 1.6442100000 4.0223500000 1.0984990000 -0.7073890000 0.4423750000
Ga 1.3889300000 1.5449700000 1.7437700000 0.8511280000 -1.6145020000 -0.3209960000
Ga -1.2660600000 0.0013700000 10.2149000000 -0.1701620000 -0.3721500000 0.3088320000
Ga 9.8306300000 9.2199500000 7.0415700000 0.7208330000 -0.1747500000 -1.1505940000
Ga 4.8768200000 1.4347300000 10.3980000000 -0.1957340000 1.9045510000 -2.2627400000
Ga 3.5463100000 1.2449100000 6.9666300000 -1.0757900000 1.3619960000 -1.1833350000
Ga 1.9831700000 0.0224800000 9.5575500000 -0.0595290000 1.1465570000 -0.1387760000
Ga 6.5229800000 9.2275600000 7.6728000000 -0.1231290000 -0.4779850000 -0.9361680000
Ga 8.1450600000 1.6445100000 9.7003700000 1.4758220000 0.6225200000 1.7599880000
Ga 0.2730000000 1.5038900000 7.3165700000 -0.7798210000 -0.9896270000 0.0805860000
Ga -0.0400900000 3.2025400000 4.4752100000 -1.6682190000 -0.5120890000 0.4882620000
Ga 11.1859000000 3.2270700000 1.3861400000 -0.2797140000 -1.4688560000 -2.0758760000
Ga 6.2276400000 4.4645400000 4.6228600000 0.7467190000 0.7370230000 -1.9595670000
Ga 4.6840600000 4.8062400000 1.1575400000 0.2230620000 -0.1292750000 0.1771370000
Ga 3.2686800000 2.9843700000 3.8746500000 -0.1345750000 -0.8750020000 0.2790240000
Ga 7.6459900000 3.3290400000 1.7823700000 1.0739910000 -1.3628380000 -2.0885340000
Ga 9.5581800000 4.8514900000 3.7583800000 -0.7225510000 -1.3946980000 0.0827390000
Ga 1.5845000000 4.5301400000 1.8069000000 -0.6707390000 2.6636430000 1.5432960000
Ga -1.2858900000 3.1180000000 10.1857000000 -1.9211170000 0.0428150000 0.7975210000
Ga 9.6478700000 3.1115900000 6.8864200000 -0.6320020000 -2.9529160000 0.5855000000
Ga 4.7655300000 4.7129200000 10.0575000000 0.9234920000 -1.2748000000 2.2324500000
Ga 3.5956100000 4.4711100000 6.9597500000 -0.7853260000 -2.0513410000 -0.0897160000
Ga 1.9415600000 3.2825700000 9.7852900000 -0.6631530000 -2.1103810000 -0.1664580000
Ga 6.3228700000 3.0784600000 7.5498800000 1.7968060000 -1.7405470000 1.0703380000
Ga 8.1657200000 4.6546500000 9.6578100000 0.3997950000 -0.6596150000 1.1042090000
Ga 0.0516700000 4.5422700000 7.4894600000 -0.8540990000 0.4560090000 0.5437200000
O 1.6940600000 5.9971200000 0.6363500000 1.2911110000 1.7602570000 1.1982860000
O 9.0925600000 6.2888400000 4.8935900000 0.2750430000 -0.4171650000 2.5786230000
O 7.9551200000 7.6944900000 0.6465700000 0.5683080000 1.9948450000 -0.1182790000
O 2.9562600000 7.6914700000 5.0805600000 0.8095370000 -0.5732030000 1.0796560000
O 5.7673200000 6.2519600000 1.3520600000 -1.6509900000 1.6520170000 0.1060040000
O 5.1984900000 5.9848500000 4.1243700000 1.0025310000 0.3187070000 0.8262420000
O 11.9480000000 7.7072200000 1.6846300000 -0.5843470000 -0.2393060000 -1.1597840000
O -1.0315700000 7.8488700000 4.2910000000 -0.9319050000 -1.8385400000 -0.2828990000
O 9.5128000000 6.4174100000 2.4097100000 0.4818280000 -0.8814550000 0.4166230000
O 1.3772500000 6.2166100000 3.2953700000 -0.5169790000 -0.3979650000 1.0419270000
O 3.4304400000 7.6796400000 2.6485800000 1.1940070000 0.2123180000 -2.4254240000
O 7.5875800000 8.0322100000 3.2822800000 -0.5661120000 -0.9426100000 -0.6534780000
O 0.5581500000 6.0952400000 6.3006700000 0.3532520000 -1.0102080000 1.7777070000
O 7.6410800000 6.2221200000 10.7728000000 0.8386050000 0.0281990000 1.5498110000
O 6.6427100000 7.5775700000 6.2449100000 -0.2140240000 0.6314100000 -0.7262950000
O 1.6781200000 7.8658000000 10.7321000000 -0.7379670000 -1.5976180000 -1.1908760000
O 4.5679700000 6.0359000000 7.1616700000 0.6326750000 -2.4116500000 0.3536240000
O 3.9793900000 6.3441700000 10.0161000000 -2.1348350000 -1.3288040000 -1.1492550000
O -1.6565800000 7.6326200000 7.1908900000 -0.6213400000 -0.8935270000 0.0844290000
O -2.3705700000 7.7288800000 10.3014000000 0.0042250000 0.3402780000 -0.7438700000
O 8.3380000000 6.0591400000 8.2170200000 -0.9719690000 0.4530710000 -0.3378210000
O -0.0608000000 5.9682200000 9.0318400000 2.0865880000 0.8931920000 -1.7387930000
O 2.1383100000 7.5528600000 8.0073700000 1.4844980000 -0.2378610000 1.1798370000
O 6.3471600000 7.5957600000 8.9907600000 1.3829620000 0.9273040000 -2.5980120000
O 2.1464900000 9.2093400000 0.4918100000 -0.6826730000 0.1160300000 1.4810810000
O 9.3994300000 9.2102300000 5.1976200000 -0.6547190000 1.4711090000 0.0155400000
O 7.8257300000 1.5662800000 0.6720800000 1.2059050000 1.3264840000 1.4925350000
O 3.0614000000 1.3589300000 5.1590400000 0.1785040000 0.2675870000 -1.2310840000
O 5.7122000000 0.1802300000 1.1877200000 0.2931080000 -0.2825680000 1.4023490000
O 5.3907600000 9.2452600000 4.0148100000 -2.1505400000 -0.9737740000 -0.3985280000
O 12.0274000000 1.5044400000 1.3890700000 -0.1487480000 0.4095180000 0.2655170000
O 11.3973000000 1.6677800000 4.0625400000 -0.1866100000 0.9366570000 0.2666090000
O 9.6961100000 0.0783100000 2.5696500000 -0.6574840000 0.3452640000 -0.4044100000
O 1.2833100000 9.2665500000 3.1136800000 -0.0792330000 0.4387400000 0.1422660000
O 3.3211900000 1.4952000000 2.4492100000 0.9430860000 1.0521080000 0.2688270000
O 7.6405900000 1.7287000000 3.1896200000 -1.3513500000 -0.3317880000 0.6839890000
O 0.5237800000 9.2307900000 6.1598600000 -0.4288600000 -0.0732070000 -0.2287490000
O 7.6654300000 0.1396600000 10.8531000000 0.2487580000 -1.6089790000 0.2583460000
O 6.7244900000 1.2180900000 6.2730500000 0.1575770000 1.3844460000 0.4780990000
O 1.6211200000 1.6701300000 10.7895000000 -0.5517660000 -0.2642160000 -0.9669940000
O 4.5182100000 9.0834200000 7.2418400000 1.3297390000 -1.4190010000 0.4644540000
O 3.9422900000 9.2255800000 10.0181000000 -0.1382930000 -0.6148460000 -0.9946360000
O -1.6511000000 1.5217000000 7.1146300000 -1.5929680000 0.6043910000 0.3195490000
O -2.3480500000 1.4768900000 10.0025000000 0.1358660000 1.2655820000 -0.3103250000
O 8.4803400000 8.9354200000 8.2991600000 -0.8965710000 1.4193340000 -0.6151900000
O 0.0215600000 9.2219700000 8.8772600000 0.7091840000 -0.3406860000 -0.3017500000
O 2.0216300000 1.3422000000 7.9936700000 0.9351790000 0.0926130000 1.3344850000
O 6.3829500000 1.5222700000 9.0731200000 -2.1604330000 -0.6454910000 -0.7131150000
O 1.7829500000 3.1793800000 0.6591700000 0.2926240000 -2.4273530000 -1.6948710000
O 9.0893800000 3.1583800000 5.1828200000 -0.2365010000 -0.0671570000 -1.7573790000
O 8.0820800000 4.7496800000 0.4956400000 -0.4816400000 -0.0331340000 -0.1447880000
O 2.9332600000 4.3810800000 5.1368500000 0.5049720000 1.1190580000 1.8838010000
O 5.7449700000 3.3288900000 1.4556500000 -0.7382530000 -1.5485490000 0.4254730000
O 5.1708200000 2.9657700000 4.5148300000 -0.2245630000 0.5413150000 -0.9759020000
O 12.0626000000 4.8497100000 1.5267100000 0.7102190000 -2.3806910000 0.7218100000
O 11.3636000000 4.6806800000 4.3577200000 0.3577010000 1.5693240000 -0.1981600000
O 9.6040500000 3.3310300000 2.2823300000 0.2196640000 0.0097210000 2.0323630000
O 1.2657400000 3.2442700000 3.2825500000 1.6983010000 -0.9942920000 -1.3245630000
O 3.4649900000 4.6115700000 2.5399000000 -0.6965280000 -0.4381850000 0.4089320000
O 7.5943900000 4.6890300000 3.0522200000 -1.3414920000 0.9187960000 2.9702930000
O 0.3249400000 3.0952300000 6.2369800000 0.9282890000 0.4568920000 1.2273620000
O 7.9010300000 3.1305100000 11.0012000000 0.1706980000 0.3489590000 -1.1847990000
O 6.7778800000 4.4069800000 6.3368900000 -0.0004680000 1.6578500000 0.1184830000
O 1.3888000000 4.7162700000 10.8248000000 0.3207300000 1.1725190000 0.7319670000
O 4.5216800000 2.7681200000 7.4034800000 -1.1339950000 1.8557060000 -0.6024130000
O 3.7683900000 3.1275700000 10.1117000000 2.1513730000 -0.7965260000 -0.0090420000
O 10.5126000000 4.5451300000 7.3127700000 2.0411450000 2.6586330000 -0.3158190000
O -2.3673400000 4.6772700000 9.8922000000 0.2094130000 -0.5206470000 0.6287970000
O 8.2331300000 3.0341900000 8.2668800000 0.9822990000 -0.2330320000 -0.8566960000
O 0.0524400000 3.1027300000 8.9369400000 0.8000470000 0.0221030000 -0.8212080000
O 2.4087300000 4.4789200000 8.4112600000 -0.8649030000 1.7258120000 -1.6433680000
O 6.3117300000 4.6036600000 9.0026500000 -1.3114040000 -0.1157950000 -1.2673280000
120
lattice="12.4857782130 0.0000000000 0.0000000000 0.0000000000 9.2759407870 0.0000000000 -2.7873528650 0.0000000000 11.4487550590" Properties=species:S:1:pos:R:3:force:R:3 energy=-722.5007302300 virial="-22.1536686448 6.2333730634 3.1826919180 6.2333730634 -4.6057946950 -5.2096130115 3.1826919180 -5.2096130115 9.7559031329"
Ga -0.2352100000 6.1964700000 4.3049700000 1.5762540000 -1.0511200000 1.2256650000
Ga 10.9939000000 6.0434100000 1.0751000000 1.5145620000 1.8901480000 -0.4976060000
Ga 6.1005600000 7.6648600000 4.6084700000 1.6457710000 1.0636570000 1.4544240000
Ga 4.8020600000 7.6703600000 1.2943400000 0.4911380000 -0.3603840000 -0.7246040000
Ga 3.2737700000 6.1871400000 3.9133500000 0.1412360000 1.2265410000 -1.8321120000
Ga 7.9194100000 6.2054800000 1.7303100000 -0.7510570000 -0.2152940000 -0.5930240000
Ga 9.4606300000 7.6322900000 4.0474500000 0.4001710000 -0.3043360000 -0.9000610000
Ga 1.4714500000 7.8055400000 1.6950600000 -1.1122080000 -1.2045000000 0.9613030000
Ga -1.0627500000 6.2142200000 10.3094000000 -2.0662050000 0.0652870000 -1.8331750000
Ga 9.9367900000 6.2301900000 6.8153000000 -0.6960580000 -0.5417140000 0.6801130000
Ga 4.8909600000 7.6486100000 9.9851700000 -1.6612140000 0.8329960000 2.4069080000
Ga 3.3073100000 7.9340500000 6.9503900000 1.5059880000 0.5471340000 1.0650230000
Ga 1.9386600000 6.0905800000 9.7732100000 0.7693320000 1.4471000000 -0.7008070000
Ga 6.4087100000 6.0821700000 7.6341200000 0.3949050000 1.9746330000 -1.1150570000
Ga 8.2031000000 7.5585100000 9.4743000000 1.7927170000 0.7431500000 0.7801560000
Ga 0.2198300000 7.9078100000 7.5341800000 -2.2755320000 -2.3241510000 0.5628730000
Ga -0.0746700000 9.2739800000 4.7447900000 0.4548450000 0.2085250000 -2.6562700000
Ga 11.0473000000 0.0651700000 1.1601000000 0.4656740000 -2.6618030000 -0.7317960000
Ga 6.2112000000 1.4802800000 4.5124800000 -0.6351200000 -1.4391550000 -1.4287760000
Ga 4.7014800000 1.4575800000 1.2752900000 0.6188880000 1.1292750000 -0.0821580000
Ga 3.0805200000 9.1500500000 4.1639400000 0.1401420000 2.0261120000 -0.8015130000
Ga 7.7051900000 9.0585200000 1.7398500000 -0.1976730000 1.3355170000 -0.6612800000
Ga 9.4116600000 1.5253300000 3.8160600000 0.4332700000 0.3369060000 -0.3046360000
Ga 1.4476100000 1.7212000000 1.9833400000 -0.6012020000 -1.7007270000 0.1066810000
Ga -1.2917300000 9.1861800000 10.3683000000 -0.4304080000 -0.2486850000 -0.9534230000
Ga 9.6176400000 0.1815500000 6.6091800000 1.5082900000 -1.8707170000 4.0301660000
Ga 4.9937300000 1.4923500000 10.1455000000 -1.2366900000 0.5501380000 -0.0122700000
Ga 3.5769100000 1.7809700000 6.9706600000 -0.8517330000 -0.4705620000 -0.8593780000
Ga 1.9684800000 0.0811500000 9.5980100000 -0.7121380000 -0.9474410000 1.6676510000
Ga 6.5367400000 9.2323100000 7.4759600000 -0.4215980000 0.7397040000 -0.4002040000
Ga 8.1177800000 1.3262200000 9.6692200000 2.1132580000 0.5995450000 0.2458810000
Ga 0.1589700000 1.7042500000 7.5982700000 -0.6391770000 -0.6113470000 0.1984940000
Ga -0.1011600000 3.1571400000 4.6233500000 0.5874940000 0.9116550000 -0.6397850000
Ga 10.7109000000 2.9773700000 1.0785600000 1.9883490000 0.8115830000 2.6420990000
Ga 6.1066200000 4.3893800000 4.5498000000 2.2154290000 3.5623630000 -0.9853890000
Ga 4.8317300000 4.6304000000 1.0701400000 1.4250630000 -0.7675590000 2.2841450000
Ga 3.1811900000 3.1768200000 3.8002300000 -0.1327640000 -0.4325610000 0.5391670000
Ga 7.6001000000 2.9769100000 1.7985900000 2.1032130000 0.2592900000 0.0920640000
Ga 9.4304300000 4.5729200000 3.8564600000 0.2343150000 0.3610010000 1.5075270000
Ga 1.3610600000 4.6613600000 1.6466100000 -0.3228680000 0.2418620000 0.7795790000
Ga -1.3051800000 2.9974900000 10.4372000000 -1.5767200000 -0.7597270000 0.7812550000
Ga 9.8134200000 3.1812900000 6.8609200000 -0.0778130000 0.2183210000 1.3207090000
Ga 4.9472700000 4.5237100000 10.4133000000 0.8738030000 1.7699010000 -1.7113230000
Ga 3.6746800000 4.8638100000 6.8145000000 -1.9418750000 -1.9802280000 -0.1322420000
Ga 1.9363200000 3.1107600000 9.6358800000 -0.4190680000 -0.1999530000 0.7701900000
Ga 6.5553300000 3.2489500000 7.5441000000 0.2221790000 -0.9810000000 -0.4587440000
Ga 8.4720300000 4.5861400000 9.6439900000 -0.0052030000 0.9186240000 0.2234470000
Ga 0.2945200000 4.8137200000 7.4144300000 -0.2100800000 0.7867560000 0.2347850000
O 1.7336000000 6.2208100000 0.5944500000 1.1876170000 -0.4246400000 2.4930730000
O 9.1161400000 6.1524500000 5.2157900000 0.0513560000 -0.2796870000 -2.1173640000
O 8.0554700000 7.6879400000 0.4016900000 0.0710330000 0.0663590000 1.7629340000
O 2.7333200000 7.6844500000 5.2671200000 0.0955390000 -0.1018680000 -1.5998310000
O 5.9015600000 6.1161600000 1.4109400000 0.2677980000 0.4112870000 0.5097070000
O 5.3494300000 6.1189400000 4.2979200000 -2.1674170000 -1.6413710000 -0.8624430000
O 12.0263000000 7.6380900000 1.3593100000 -0.1457620000 1.6445870000 0.4930720000
O 11.4099000000 7.7584800000 4.3138700000 -1.1866810000 1.6092620000 -0.1854560000
O 9.9126000000 6.3314200000 2.4851400000 -3.3637200000 -0.6109900000 1.3487250000
O 1.1898100000 6.1179700000 3.1327300000 0.9696800000 0.3983900000 -0.2528230000
O 3.3484900000 7.6008500000 2.4527800000 0.2976670000 -0.2944090000 1.6844990000
O 7.6313400000 7.7403600000 3.4141000000 -0.4379620000 -0.4905290000 -1.5512540000
O 0.2362000000 6.3149700000 6.2422700000 0.5407760000 -0.2929790000 -0.5579680000
O 7.9812800000 6.1432200000 10.7513000000 -0.6464280000 -0.4154710000 -1.7088870000
O 6.6669100000 7.6620700000 6.4996400000 -0.0038260000 0.1867790000 -2.7056940000
O 1.7890700000 7.7217200000 10.9100000000 -0.5966090000 -0.1495860000 -1.0312830000
O 4.3701600000 6.4091200000 7.1773000000 1.3484570000 1.1709330000 0.7446480000
O 4.0072600000 6.0736500000 10.0604000000 -1.7587020000 -0.1788540000 -0.7438110000
O 10.6564900000 7.6950900000 7.4022700000 1.0649930000 3.6331980000 -1.1762580000
O -2.2668100000 7.6329000000 10.0038000000 -0.0103260000 0.4625710000 0.1445820000
O 8.4285800000 6.2304700000 7.9802500000 -1.0186040000 -0.9305570000 1.9297830000
O 0.0676200000 6.3274200000 8.9071000000 1.1261230000 -1.2357960000 0.0540650000
O 1.9935900000 7.6830400000 8.2753200000 1.7692360000 1.0207430000 -0.3669350000
O 6.2680700000 7.8017900000 8.9156800000 1.3895540000 -0.6008400000 -0.7947720000
O 2.1147700000 9.1835500000 0.6770000000 -0.2551720000 1.3610200000 -0.6779220000
O 9.1623700000 0.0343600000 4.9207000000 -0.1220030000 0.1144250000 -0.1205720000
O 7.9439800000 1.6157700000 0.4744100000 1.1757770000 -0.6513950000 1.2382980000
O 2.7005700000 1.5701000000 5.2103000000 1.1220940000 0.7708700000 0.3074880000
O 5.7578300000 9.2295200000 1.5929100000 0.2131530000 -0.1081890000 0.1054400000
O 5.0720800000 9.1894600000 4.3324900000 0.2698760000 0.2876700000 -0.2929950000
O 12.0408000000 1.5828900000 1.4133800000 -0.6191140000 0.1869070000 0.0459680000
O -0.7947000000 1.5911300000 4.1702000000 -2.3532190000 -1.3135020000 0.1684820000
O 9.5253300000 0.0105200000 2.2547400000 1.0871020000 0.5111180000 1.1049470000
O 1.2956500000 0.0395500000 3.2680300000 0.1181750000 -0.3738910000 0.3660520000
O 3.3383300000 1.6456400000 2.5319400000 0.4630880000 -0.6481370000 0.9177170000
O 7.5050400000 1.4414100000 3.0992600000 -0.1621430000 0.0560810000 1.0886910000
O 0.4751500000 0.0275200000 6.4081800000 0.7037700000 1.6616990000 0.2028630000
O 7.7690100000 9.0944100000 10.7702000000 0.0826520000 0.6771320000 0.2855650000
O 6.6754500000 1.6176500000 6.2010000000 1.3700340000 -0.0846390000 2.5491200000
O 1.5602600000 1.6171000000 10.9517000000 0.2806670000 -0.4890020000 -1.4595390000
O 4.6024300000 0.2582400000 7.0460200000 -1.8057510000 -1.7415090000 0.4904160000
O 3.8968600000 0.0364400000 9.8328900000 0.1793620000 -0.8043010000 -0.2391610000
O 10.7014000000 1.5812600000 7.1886300000 0.1650310000 0.2351410000 -0.4365250000
O -2.4022100000 1.3737300000 10.1266000000 0.2885830000 1.5215660000 -0.0915510000
O 8.5317500000 9.1741400000 8.1308000000 -1.7087060000 0.9969210000 -0.1378690000
O 0.0128400000 0.0545000000 8.8887300000 -0.0732490000 0.2220290000 1.5896430000
O 2.0046100000 1.5267000000 8.3054700000 1.7689270000 1.5163370000 -1.2725430000
O 6.3721200000 1.3829400000 8.8686700000 -0.4500810000 1.3442890000 0.2581610000
O 2.0298200000 3.0238500000 0.7842100000 -0.8168260000 0.9221470000 -1.4143350000
O 9.1230600000 3.0919400000 5.2082000000 -0.0012330000 -0.5339380000 -1.4333750000
O 8.3955300000 4.6877500000 0.6008100000 0.2848830000 -0.6339040000 2.1222130000
O 2.7946400000 4.8861500000 5.0215200000 0.9606140000 -2.9061900000 2.2605970000
O 5.8695800000 3.0861000000 1.5055100000 -3.0576160000 -0.0558850000 -0.5752410000
O 5.1618900000 2.9735400000 4.3280400000 -2.0996960000 -1.1101250000 -0.5417960000
O 11.8889000000 4.5295400000 1.3481100000 0.5008910000 -1.3215780000 0.6099340000
O 11.3018000000 4.6058200000 4.1245900000 0.4722080000 0.1274500000 0.6785170000
O 9.5922500000 3.0108300000 2.6285900000 0.6751480000 -0.4068280000 -1.9534480000
O 1.1725300000 3.3268000000 3.2224700000 1.3093290000 -0.8552670000 0.1640670000
O 3.5976100000 4.4749100000 2.3904500000 -1.5101960000 1.3231240000 1.5835330000
O 7.6554500000 4.4141000000 3.2437100000 -1.5586510000 1.1763170000 0.1378310000
O 0.5256800000 3.2552100000 6.3429300000 -0.0159520000 -0.8664030000 0.8604440000
O 7.9493300000 3.1671900000 10.8116000000 -1.0473070000 -1.6658930000 -2.5918710000
O 6.5298000000 4.7215000000 6.2793200000 0.6740280000 -0.6959170000 1.0649430000
O 1.3682500000 4.6490600000 10.9074000000 -0.0508980000 -0.1108890000 -2.5095330000
O 4.6217700000 3.2968400000 7.4139800000 -1.7477440000 -0.3354320000 -0.8218160000
O 3.8750700000 3.1650000000 10.0881000000 -0.5684230000 -2.0849370000 -0.7670420000
O -1.6722800000 4.6935800000 7.2740000000 -0.2215650000 -1.1443420000 0.0626230000
O -2.1170500000 4.6648600000 10.2437000000 -1.0868090000 -0.9738380000 -1.0622510000
O 8.4022700000 3.1365500000 8.2512700000 0.1167990000 0.0915440000 -0.6177010000
O -0.0869000000 3.0194300000 9.1477100000 2.3141630000 0.0668280000 -2.3442000000
O 2.2026700000 4.6883200000 8.2151000000 -0.8244100000 -0.3473810000 -0.0195030000
O 6.3130800000 4.7867200000 9.0113200000 0.0747370000 -1.3485980000 0.0622530000
120
lattice="12.4857782130 0.0000000000 0.0000000000 0.0000000000 9.2759407870 0.0000000000 -2.7873528650 0.0000000000 11.4487550590" Properties=species:S:1:pos:R:3:force:R:3 energy=-722.7586650500 virial="2.1169227957 -7.5081944153 -1.1345511128 -7.5081944153 -3.4019567546 -2.6173984681 -1.1345511128 -2.6173984681 -3.3069480611"
Ga -0.0424900000 6.0425700000 4.7220300000 1.2499990000 0.5506370000 -0.5902200000
Ga 11.1161000000 6.1290100000 1.4019800000 -1.3627740000 1.2223150000 -0.0054760000
Ga 6.4105200000 7.8195900000 4.5523800000 -2.4976480000 2.4263370000 -1.0356580000
Ga 4.9068500000 7.5951200000 1.2514100000 0.0171760000 -2.1824810000 0.5793160000
Ga 3.3395500000 6.3559600000 4.0005500000 -1.7809190000 -0.4085540000 0.1302370000
Ga 7.7537200000 5.9208700000 1.7970700000 -0.3580410000 0.7487710000 -0.1429030000
Ga 9.5355500000 7.6546500000 3.8721800000 1.2576960000 -0.0424510000 2.0720810000
Ga 1.6070900000 7.6422300000 1.7937100000 0.0198500000 0.2550750000 -0.3437200000
Ga -1.6475900000 6.1395200000 10.2746000000 0.8649030000 1.3427870000 -0.6367080000
Ga 9.5661100000 6.2149400000 6.9973500000 2.4648810000 1.5111900000 -0.5480570000
Ga 4.8782900000 7.8055900000 10.4645000000 -1.1002540000 -0.9823200000 -0.1348310000
Ga 3.4544800000 7.6964600000 6.9208800000 -0.0496170000 0.1229100000 -0.5696150000
Ga 1.8660700000 6.1708400000 9.4919400000 -0.0435970000 -0.4265040000 1.8814240000
Ga 6.4793300000 6.4168700000 7.4393100000 -0.5170340000 -0.9869940000 0.5964290000
Ga 7.9693300000 7.6491500000 9.9273800000 1.0451410000 0.7014010000 -0.5255570000
Ga 0.1189100000 7.8403200000 7.5601100000 -1.1524370000 -0.9097200000 0.2075910000
Ga -0.0090300000 9.0342400000 4.5324400000 0.5740130000 2.7870160000 -0.1796010000
Ga 11.0491000000 9.2200500000 1.1070300000 1.0911190000 -0.1179890000 0.4192710000
Ga 6.1590100000 1.8701000000 4.3530200000 0.4064240000 -0.8967240000 0.7434830000
Ga 4.9311800000 1.2510600000 1.3207100000 -1.5614100000 2.9021680000 -0.9916000000
Ga 3.3520000000 0.1816500000 3.8809000000 -0.1506320000 -0.0383940000 0.6882030000
Ga 7.8960100000 0.0184500000 1.7741300000 -0.2489200000 -0.7430110000 0.7749390000
Ga 9.5692000000 1.3676800000 3.9033500000 0.5501270000 2.6646240000 -0.8338660000
Ga 1.4404500000 1.5257200000 1.6995100000 1.7467430000 -0.5150570000 0.8145310000
Ga -1.4725500000 0.0260800000 10.2387000000 0.5773890000 -1.2140490000 -0.4806020000
Ga 9.6612600000 0.0811100000 6.8843000000 -0.8735370000 2.1225850000 -0.5100880000
Ga 4.7704100000 1.6286600000 10.3018000000 0.9279190000 -0.9788810000 0.1809220000
Ga 3.3244200000 1.6590800000 6.9744100000 1.0924270000 -1.3309270000 -1.5668600000
Ga 1.8678700000 9.1513000000 9.8845300000 -0.4296110000 1.3324040000 -1.4153410000
Ga 6.2616500000 0.1857100000 7.3684200000 -0.4610350000 2.0114710000 0.1704850000
Ga 8.2001000000 1.5855800000 9.3543800000 -0.1566310000 0.2339660000 0.9817390000
Ga 0.1771600000 1.5410000000 7.5909300000 -0.9292850000 -0.1446220000 -1.6206980000
Ga -0.0067800000 2.9448700000 4.5363900000 0.0240080000 -0.7692680000 -2.6781050000
Ga 11.3283000000 3.0445700000 1.2038900000 -2.3496200000 -0.5684910000 -1.3838330000
Ga 6.3150500000 5.0578200000 4.5429300000 -0.5088770000 -2.9761390000 -0.5436040000
Ga 4.6883200000 4.2699000000 1.1767000000 -0.4277670000 2.8612950000 1.9322890000
Ga 3.3749200000 3.2125500000 3.9198000000 -0.8966940000 -0.9413490000 0.6011000000
Ga 7.9020200000 3.0269700000 1.7355400000 -0.2240880000 1.6038620000 0.9385510000
Ga 9.6149500000 4.5821800000 3.9970600000 -0.6539730000 -0.0461850000 -0.0585190000
Ga 1.4216800000 4.6269300000 1.8018800000 1.3082940000 -2.0372970000 2.0957310000
Ga -1.2412600000 3.1118100000 10.2130000000 -1.3901790000 0.5844980000 0.3149850000
Ga 9.7471300000 3.1675300000 6.7667900000 0.8005600000 0.2291790000 -0.4432260000
Ga 4.9341100000 4.7303500000 10.0247000000 -0.5189010000 -1.0058480000 2.5848110000
Ga 3.3284200000 4.6434300000 6.8491600000 1.5431820000 1.0928440000 1.0459440000
Ga 1.9853600000 2.9920300000 9.6850900000 -0.2884110000 0.1198030000 0.6007350000
Ga 6.2508600000 3.1675200000 7.4004300000 1.2084200000 0.1694580000 -0.5494790000
Ga 7.9819700000 4.5727900000 9.5203800000 2.4415390000 -0.4931720000 2.2225950000
Ga 0.1633400000 4.5805600000 7.5383400000 -0.2007330000 1.4329220000 -1.1526330000
O 1.5550300000 5.8927200000 0.5737500000 1.8891670000 3.2503350000 -0.7840660000
O 9.1633500000 6.1892000000 5.2330400000 -0.1943980000 -0.7237940000 -1.2444610000
O 8.1167100000 7.5383000000 0.7756300000 0.2635840000 1.7050720000 0.1621020000
O 3.1072900000 7.9568100000 5.0621600000 -0.6814400000 -1.3507010000 0.8875540000
O 5.8349000000 5.9245900000 1.6853400000 -1.1784250000 0.7781230000 -1.5858210000
O 5.1724600000 6.4088300000 4.0026900000 2.7765910000 0.3941140000 1.6662060000
O -0.2898800000 7.5828800000 1.5874700000 -1.6375310000 2.2963600000 -0.4409130000
O 11.4202100000 7.5640500000 4.2765600000 0.7392380000 -0.3342980000 0.1463640000
O 9.6710800000 6.0743200000 2.6523400000 0.4556170000 -0.5187780000 -0.8164060000
O 1.5053900000 6.2015600000 3.2582500000 -1.8225640000 -0.2622980000 0.8916560000
O 3.4323800000 7.6159100000 2.5104200000 0.8864510000 1.1811150000 -1.6671780000
O 7.7903000000 7.6826400000 3.4318700000 -2.1611340000 -0.2422870000 -1.3629440000
O 0.6336500000 6.3263300000 6.4521500000 -0.5127730000 -1.1096950000 -0.9746810000
O 7.9762700000 6.1112500000 11.0639000000 -0.9876870000 0.6893300000 -2.2083340000
O 6.4863500000 7.9691300000 6.3328400000 0.8231790000 -1.3713330000 0.3699530000
O 1.4867700000 7.7511800000 10.9535000000 0.1356480000 -2.0584220000 0.2813030000
O 4.6204500000 6.2154200000 7.1099200000 -2.3991640000 -0.5121360000 -0.1275180000
O 4.0149000000 6.2167400000 9.9665100000 -2.8320950000 1.2458560000 -0.3500900000
O 10.5530000000 7.9316000000 7.1746700000 1.8709490000 -3.9687110000 0.3784800000
O 10.0491000000 7.7749300000 9.8336700000 -1.2086210000 -0.3181660000 0.6303880000
O 8.2656100000 6.3923200000 8.1984600000 -1.1806060000 -0.6545790000 1.4184800000
O -0.1723900000 6.3193800000 8.9639100000 0.9290310000 -0.9120230000 0.4661100000
O 2.1155700000 7.6438000000 8.3136700000 -0.0740050000 0.8365970000 -0.2872960000
O 6.1674500000 7.6462800000 9.2274900000 1.5782800000 0.4682130000 -1.4736310000
O 1.8914600000 9.1479500000 0.5029400000 0.0393060000 0.2057910000 1.5507090000
O 9.2874500000 0.1028500000 5.1066800000 -0.6623510000 -2.2854930000 0.3344300000
O 8.2378800000 1.6353600000 0.6384400000 -0.5769360000 -2.3137740000 -1.7365820000
O 3.0650100000 1.5905100000 5.1665100000 -0.3889460000 1.6219530000 -1.1628290000
O 5.9594500000 9.1121200000 1.4951900000 0.5471820000 -1.0219340000 0.2028700000
O 5.2886200000 0.2405300000 4.2982300000 0.1488010000 -1.6219150000 -0.7228130000
O 12.0922000000 1.4394500000 1.5190600000 -0.5815230000 -0.6784900000 -0.5304400000
O -0.9768800000 1.4533900000 4.1748400000 0.2021360000 -1.5289850000 0.4141390000
O 9.7571900000 9.0834300000 2.5371200000 0.2326650000 0.6078830000 -1.7219190000
O 1.4050100000 0.1725100000 3.1651300000 -0.0473850000 -1.7303260000 0.8708360000
O 3.5296500000 1.6408700000 2.5003400000 -0.1108160000 -1.1662370000 -0.1721200000
O 7.5943300000 1.3399500000 3.2757000000 1.0189070000 0.8571390000 -1.3998630000
O 0.4475400000 9.2678300000 6.3721900000 0.3391650000 0.0695230000 -1.2964310000
O 7.8569700000 0.2315900000 10.7299000000 -0.2144370000 -2.4134920000 0.9418880000
O 6.6658300000 1.8290800000 6.1382200000 -0.4175930000 -1.2134230000 1.1234380000
O 1.3853100000 1.4508600000 10.9152000000 1.2156810000 0.2498440000 -0.2381360000
O 4.2287100000 0.0337200000 7.1526900000 1.9463840000 0.9906780000 1.1971820000
O 3.7673700000 0.0059400000 10.1918000000 0.8254830000 0.7032240000 -0.0920610000
O 10.7411000000 1.6410900000 7.0585200000 0.2441580000 0.0436740000 0.8912440000
O -2.3240900000 1.5971100000 10.1177000000 -0.8126370000 0.7530590000 -1.4613490000
O 8.1397800000 0.0667200000 7.9636800000 -0.0318400000 1.0419790000 1.3238400000
O -0.1314300000 0.0266200000 8.8493600000 0.7430240000 0.2122700000 1.3865110000
O 2.0065300000 1.4645800000 8.1601000000 -0.2921800000 0.7872680000 2.0313910000
O 6.0515600000 1.5780900000 8.9215200000 1.1212350000 0.0890000000 -1.0178180000
O 1.7998700000 3.0457600000 0.5919800000 0.0935650000 0.3008930000 -0.2951670000
O 9.2015800000 3.0515200000 5.0175800000 0.1910900000 0.3204250000 -0.1953450000
O 8.1772400000 4.6883000000 0.4664300000 0.1234980000 -1.8620010000 -0.1307210000
O 2.9940300000 4.7821900000 5.1329200000 -0.3322960000 -0.0138230000 -1.4677510000
O 5.7837100000 2.9365900000 1.4245100000 2.2800830000 -2.3759850000 -0.0526970000
O 5.3022400000 3.4386300000 4.0480100000 -0.2366970000 0.3696700000 0.7231860000
O 12.0529000000 4.6731000000 1.3596500000 0.6992650000 -2.4692200000 1.1844460000
O -0.9343800000 4.5160500000 4.2074100000 -0.5488240000 1.0013360000 -0.0615350000
O 9.8610300000 2.7708400000 2.4268200000 -0.9879240000 1.4085410000 0.0059870000
O 1.3090500000 3.0265900000 3.1754700000 -0.0671490000 0.3694520000 0.0076520000
O 3.3093800000 4.4267500000 2.4989700000 0.9425060000 1.4539720000 -1.5858090000
O 7.5588900000 4.4514400000 3.1493100000 1.3524090000 0.8560040000 0.4943630000
O 0.5566200000 3.1317200000 6.1455000000 0.8070920000 0.3246990000 4.4667310000
O 7.8576000000 2.9915700000 10.7931000000 -0.0555840000 0.7161470000 -1.0639390000
O 6.8059800000 4.7582000000 6.3251100000 -0.2366230000 1.0946330000 -0.6917350000
O 1.6573600000 4.5021800000 10.8867000000 -0.4129600000 0.6584600000 -2.5430300000