120
lattice="11.9694502500 0.0000000000 0.0000000000 0.0000000000 8.8923501510 0.0000000000 -2.6720866630 0.0000000000 10.9753114110" Properties=species:S:1:pos:R:3:force:R:3 energy=-728.4713398300 virial="171.5448163300 2.5009806579 4.5212398992 2.5009806579 203.6495947600 1.2614088559 4.5212398992 1.2614088559 178.1131761405"
Ga -0.0085600000 8.8850400000 4.3592900000 0.7671120000 -0.4578500000 -0.4891170000
Ga -1.3468800000 8.8797100000 9.8363000000 1.1920110000 0.6839380000 0.6054000000
Ga 0.0062700000 2.9369300000 4.3442100000 0.9875670000 1.1893340000 0.0533160000
Ga -1.3049800000 2.9518900000 9.8431600000 -0.2849630000 0.3941620000 0.0408110000
Ga 0.0222900000 5.9159300000 4.3570500000 -0.0071050000 0.5210370000 -0.5941090000
Ga -1.3160000000 5.8998300000 9.8290000000 -0.0376870000 0.7659850000 0.7407620000
Ga 10.6280700000 0.0065700000 1.1408600000 -0.6850460000 0.2897760000 0.3575360000
Ga 9.3031700000 0.0272300000 6.6317700000 -1.2587270000 -1.2645730000 -0.8532890000
Ga 10.6252400000 2.9655700000 1.1331300000 -1.0440130000 -0.5471130000 -0.4673070000
Ga 9.2920000000 2.9418300000 6.6305300000 -0.7569440000 0.9462690000 -0.2653040000
Ga 10.6043400000 5.9007700000 1.0903200000 0.2471340000 1.0466920000 1.1787280000
Ga 9.2828200000 5.9304100000 6.6143900000 -0.2255560000 -0.2514670000 -0.5366420000
Ga 6.0010400000 1.4955200000 4.3821400000 0.5447680000 -1.1248250000 -0.6404290000
Ga 4.6572400000 1.4691800000 9.8609100000 0.3822350000 0.4860220000 -0.7676620000
Ga 5.9793000000 4.4484300000 4.3784900000 1.1131510000 0.3884400000 -0.8641650000
Ga 4.6538700000 4.4617600000 9.8449700000 0.2754390000 -0.9545000000 0.2804500000
Ga 5.9624400000 7.3877600000 4.3477000000 1.3689550000 0.3750300000 0.7061170000
Ga 4.6645000000 7.4101100000 9.8471500000 0.3655430000 -0.0352680000 0.0526740000
Ga 4.6241800000 1.4882500000 1.1330400000 0.1956260000 -0.3825170000 -0.7800990000
Ga 3.3071700000 1.4906300000 6.6155500000 -0.4429990000 -0.4150990000 0.0816450000
Ga 4.6342200000 4.4460300000 1.1245800000 -0.2801230000 0.2722150000 -0.0422230000
Ga 3.3012900000 4.4459900000 6.6223600000 0.0416570000 -0.2031970000 -0.0817680000
Ga 4.6305800000 7.4222900000 1.1041300000 -0.6359510000 -0.5171540000 0.4347420000
Ga 3.2911300000 7.3908000000 6.6313900000 -0.7862120000 0.3489980000 -1.1355080000
Ga 3.1648300000 8.8892900000 3.7536700000 0.3865530000 0.2053200000 -0.2245830000
Ga 1.8241400000 0.0125900000 9.2435000000 0.4327230000 -0.3037790000 -0.5785690000
Ga 3.1905600000 2.9669600000 3.7622800000 0.1530950000 -0.2531170000 -0.1027060000
Ga 1.8274400000 2.9705000000 9.2621300000 0.1209830000 -0.4893320000 -0.6192940000
Ga 3.1802500000 5.9276400000 3.7682000000 -0.2562390000 0.2163960000 -0.2620780000
Ga 1.8265600000 5.9354500000 9.2448600000 0.2129210000 -0.0329070000 -0.1422460000
Ga 7.4638200000 8.8903900000 1.7252600000 -0.0449830000 -0.1495510000 0.5213100000
Ga 6.1098500000 8.8810800000 7.2206000000 0.1358840000 0.7282060000 0.1402810000
Ga 7.4639300000 2.9664600000 1.7232500000 -0.0495570000 -0.1523510000 0.3119130000
Ga 6.1375000000 2.9833100000 7.2175100000 -0.1943970000 -0.3480540000 0.3665630000
Ga 7.4587500000 5.9180900000 1.7306100000 0.0371640000 0.4377440000 0.2925310000
Ga 6.1304700000 5.9314400000 7.2065500000 0.2328780000 0.2805500000 0.0130750000
Ga 9.1770400000 1.4901800000 3.7437900000 -0.4104030000 -0.3869880000 0.3260730000
Ga 7.8199300000 1.4821100000 9.2518900000 -0.1747430000 0.0883720000 -0.0536110000
Ga 9.1432900000 4.4308900000 3.7380500000 0.2575300000 0.2962690000 0.2955770000
Ga 7.7995800000 4.4581600000 9.2342500000 0.2406500000 -0.4300550000 -0.0240470000
Ga 9.1303600000 7.3835500000 3.7958000000 0.2806750000 0.8448360000 -0.7857710000
Ga 7.8113700000 7.4230300000 9.2607300000 0.4898740000 0.2273410000 -0.0710550000
Ga 1.4709700000 1.4851700000 1.7228700000 0.2637990000 -0.1721450000 0.2657200000
Ga 0.1278800000 1.4590500000 7.1791900000 0.3720730000 0.4799530000 0.6411120000
Ga 1.4621600000 4.4092900000 1.7357100000 0.2169210000 0.8683610000 0.0556940000
Ga 0.1412400000 4.4507400000 7.2197300000 0.0430340000 -0.1459470000 -0.2879770000
Ga 1.4895400000 7.4088900000 1.7160900000 -0.3626280000 0.0242490000 0.2472400000
Ga 0.1461100000 7.4179400000 7.2074900000 -0.4177540000 -0.1852400000 0.1736950000
O 1.8230200000 0.0177100000 0.6090500000 0.6340470000 -0.1642220000 -0.7394450000
O 0.4752400000 8.8819300000 6.0785700000 0.6192010000 0.0731050000 -0.1698950000
O 1.8354300000 2.9591700000 0.5853400000 0.7266820000 -0.0026490000 0.1647500000
O 0.4954900000 2.9457300000 6.0699600000 0.4877650000 0.2803490000 0.1658480000
O 1.8139600000 5.9203000000 0.6096100000 0.5060530000 -0.3066820000 -0.4635460000
O 0.4549300000 5.9528200000 6.0616000000 0.8016530000 -0.4617040000 0.9098040000
O 8.8151700000 8.8894700000 4.8834200000 -0.3441960000 0.3471270000 0.6272490000
O 7.4913000000 0.0158300000 10.4083600000 -0.8440390000 -0.0443070000 -0.7142110000
O 8.7915100000 2.9763400000 4.9165400000 -0.4640240000 -0.1962690000 -0.4712230000
O 7.4554800000 2.9689400000 10.3844500000 -0.5791260000 0.0563490000 -0.1467850000
O 8.8140200000 5.9370000000 4.8640000000 -0.6139930000 -0.8843850000 1.0547630000
O 7.4960700000 5.9261900000 10.3696800000 -0.9187180000 0.0680850000 -0.5994970000
O 7.7685300000 1.4840500000 0.5899500000 0.8758000000 -0.0203880000 0.6732770000
O 6.4481200000 1.5188300000 6.0955000000 0.7097790000 -0.6355160000 0.2765300000
O 7.7922900000 4.4471900000 0.5953000000 0.7473560000 -0.1126420000 -0.0304020000
O 6.4349700000 4.4362000000 6.0686400000 0.9919950000 0.5011140000 0.9658240000
O 7.7978300000 7.4132800000 0.5992300000 0.6233150000 -0.0907550000 0.0116100000
O 6.4671300000 7.4551000000 6.0861000000 0.6124730000 -0.8130860000 -0.1582810000
O 2.8272600000 1.4746600000 4.8917500000 -0.4826870000 0.2848360000 -0.2235410000
O 1.5152700000 1.4519900000 10.3486100000 -0.6852890000 0.7419240000 1.0146150000
O 2.8281900000 4.4423500000 4.8945500000 -0.5069350000 0.0452940000 0.0956860000
O 1.5028600000 4.4389200000 10.3605900000 -0.7269210000 0.3027970000 0.4392320000
O 2.8161800000 7.4407500000 4.8619700000 -0.4733410000 -0.6774350000 1.1113930000
O 1.4989300000 7.4293200000 10.3596100000 -0.6949820000 -0.3646530000 -0.0820750000
O 5.5758100000 8.8740000000 1.4275600000 0.9898350000 0.7564410000 0.1887420000
O 4.2349200000 8.8644300000 6.8855400000 0.8831410000 0.5871200000 0.3879340000
O 5.5954100000 2.9655000000 1.4106400000 0.4840210000 -0.0357700000 0.2358330000
O 4.2706000000 2.9522500000 6.9187500000 0.3087020000 0.5521930000 0.0936610000
O 5.6090900000 5.9365200000 1.3870300000 0.0656220000 -0.0865160000 0.1784480000
O 4.2757100000 5.9452800000 6.8691000000 0.5294790000 -0.6628810000 0.3203810000
O 5.0541200000 8.8492900000 4.0775400000 -1.0130100000 1.8286870000 -0.2678580000
O 3.7075900000 8.8889100000 9.5563800000 -0.7847620000 -0.2826340000 -0.3648910000
O 5.0683400000 2.9801500000 4.1016600000 -1.4886040000 -0.6152030000 -0.6445780000
O 3.6989800000 2.9610000000 9.5531200000 -0.3702100000 0.0863590000 -0.0920860000
O 5.0446300000 5.9283500000 4.0845800000 -1.2164270000 -0.6643680000 -0.4516540000
O 3.7100200000 5.9179400000 9.5602500000 -1.0251510000 0.7345830000 -0.4576230000
O 11.5846800000 1.4996800000 1.3929600000 0.6594200000 -0.1746180000 0.4329300000
O 10.2212000000 1.4790400000 6.8841500000 1.8325250000 0.2983030000 0.5718400000
O 11.5664600000 4.4141700000 1.3842500000 1.1547750000 1.0162370000 0.5033790000
O 10.2409100000 4.4342400000 6.9122100000 0.5350270000 0.2639260000 0.1150410000
O 11.5773800000 7.4463000000 1.3831800000 0.7509430000 -1.7164220000 0.2759840000
O 10.2370200000 7.4127100000 6.8903300000 0.7657290000 0.0772550000 0.3527210000
O -0.9361400000 1.4893100000 4.0848900000 -0.9788340000 -0.5251800000 -0.4152050000
O -2.2813000000 1.4821100000 9.5669100000 -0.6180380000 0.1206180000 -0.3102780000
O -0.9464200000 4.4470000000 4.0773100000 -0.5804230000 -0.4928630000 -0.3150470000
O -2.2967800000 4.4483600000 9.5550600000 -0.4504990000 -0.5909740000 -0.1159630000
O -0.9585700000 7.4070500000 4.0392700000 -0.2164900000 -0.2732030000 -0.0666800000
O -2.2814400000 7.4309600000 9.5970800000 -0.8442710000 -1.4249860000 -0.4716540000
O 9.3181500000 8.8678200000 2.4045800000 -0.0094810000 0.2889420000 -0.0410100000
O 7.9932300000 0.0088800000 7.8842700000 -0.2629980000 -0.0087140000 0.3339600000
O 9.3216300000 2.9612600000 2.4082200000 -0.0200150000 -0.0306640000 -0.1151730000
O 7.9709700000 2.9641000000 7.8765200000 0.0576880000 0.1368720000 0.3613060000
O 9.2943700000 5.9322200000 2.3660800000 0.4041420000 -0.2093050000 0.1605580000
O 7.9784800000 5.9391800000 7.8708100000 -0.1689200000 -0.1258240000 0.2529680000
O 1.3316300000 0.0059000000 3.0843500000 -0.6408820000 0.1666350000 0.2005690000
O 0.0020200000 0.0024800000 8.5911100000 -0.6016280000 -0.0207690000 -0.3563200000
O 1.3659400000 2.9778500000 3.0903900000 -0.7938320000 -0.2764140000 0.1140170000
O -0.0339800000 2.9667300000 8.5758400000 0.4677540000 -0.0783480000 -0.5103730000
O 1.3405400000 5.9387400000 3.1141600000 -0.2494150000 -0.2793240000 -0.5331400000
O -0.0144100000 5.9265200000 8.5867800000 0.0931540000 -0.0095030000 -0.4530010000
O 3.3500800000 1.4524900000 2.3748500000 -0.5706680000 0.4207170000 0.8526950000
O 1.9853700000 1.4792100000 7.8733600000 -0.0291130000 0.0519800000 0.0253740000
O 3.3290900000 4.4482700000 2.3903400000 0.1922420000 -0.0650670000 0.1961830000
O 1.9975300000 4.4387300000 7.8737600000 -0.2348850000 0.1634400000 0.2524910000
O 3.3201500000 7.4083600000 2.3938800000 0.4729800000 -0.1437820000 -0.2124110000
O 1.9619500000 7.3826500000 7.8484200000 0.2731240000 0.0933580000 0.6487840000
O 7.3423000000 1.4589900000 3.1069200000 -0.7879840000 0.3405370000 -0.1479700000
O 5.9721200000 1.4825200000 8.5814200000 -0.1930090000 -0.1342400000 -0.0002750000
O 7.3110100000 4.4497100000 3.0976900000 -0.5091150000 -0.1421540000 -0.0389100000
O 5.9501900000 4.4463700000 8.5920100000 0.3780480000 0.2081040000 -0.6101250000
O 7.3048900000 7.4118800000 3.1419300000 0.0457060000 -0.1564820000 -0.9875200000
O 6.0084700000 7.4148900000 8.6073300000 -0.6891850000 -0.0948470000 -0.3011360000
120
lattice="11.9694502500 0.0000000000 0.0000000000 0.0000000000 8.8923501510 0.0000000000 -2.6720866630 0.0000000000 10.9753114110" Properties=species:S:1:pos:R:3:force:R:3 energy=-728.1130826300 virial="169.1288652959 -2.1726519842 3.8346012610 -2.1726519842 203.9222116041 1.9728958013 3.8346012610 1.9728958013 183.3734052780"
Ga 0.0401500000 8.8571300000 4.3556100000 0.0720380000 1.1648130000 0.1794710000
Ga -1.3192800000 0.0076500000 9.8484000000 0.0913200000 -0.2825490000 -0.2993460000
Ga 0.0284700000 2.9340800000 4.3925700000 -0.0218000000 0.8986430000 -0.9270410000
Ga -1.3327400000 2.9622100000 9.8521700000 0.8439450000 -0.5457560000 -0.1247810000
Ga -0.0006300000 5.9516800000 4.3487600000 0.6198520000 -1.2613250000 0.2154620000
Ga -1.3198500000 5.9290200000 9.8475000000 0.3309420000 -0.6342720000 0.0703550000
Ga 10.6140300000 0.0046700000 1.1180100000 -0.3495030000 -0.5910850000 0.0204380000
Ga 9.3023100000 8.8750600000 6.6028700000 -0.6079010000 0.4959000000 1.3238470000
Ga 10.6057200000 2.9731100000 1.1065900000 -0.1131930000 0.4026640000 -0.2718420000
Ga 9.2877500000 2.9371000000 6.6226800000 -0.9563660000 0.3026780000 0.3930080000
Ga 10.6402400000 5.9094800000 1.1401800000 -0.3740010000 0.3135830000 -0.6210510000
Ga 9.2485200000 5.9167600000 6.6179600000 0.5418950000 -0.2269720000 1.0829500000
Ga 5.9996300000 1.4810300000 4.3614400000 0.4563070000 0.2524820000 -0.2872520000
Ga 4.6344000000 1.4650900000 9.8699700000 1.1197230000 0.7028220000 -0.7430080000
Ga 6.0087400000 4.4867600000 4.3458800000 0.2175500000 -1.5928430000 0.2777800000
Ga 4.6926500000 4.4560800000 9.8454300000 -0.1548660000 -0.7388190000 0.1530810000
Ga 6.0020100000 7.4077100000 4.3647100000 0.1919140000 0.0927700000 -0.0537820000
Ga 4.6646000000 7.4252700000 9.8516100000 0.5744640000 0.2283540000 0.1062220000
Ga 4.6419300000 1.5100200000 1.1296800000 -1.3050150000 -1.4884780000 -0.9307050000
Ga 3.3204900000 1.4620400000 6.5893500000 -0.9687180000 0.2840230000 1.1698410000
Ga 4.6461300000 4.4559200000 1.1132800000 -0.8568760000 -0.5847060000 -0.3360650000
Ga 3.3006400000 4.4461900000 6.6141700000 0.2035350000 -0.4358990000 0.4686370000
Ga 4.6353600000 7.4078400000 1.1512500000 -0.8705380000 0.6818370000 -0.7491600000
Ga 3.2814200000 7.4028500000 6.6233700000 0.0170970000 0.0344830000 -0.4678210000
Ga 3.1609600000 0.0018400000 3.7673700000 0.3753820000 -0.2680030000 -0.6144390000
Ga 1.8379800000 0.0057600000 9.2504900000 -0.2620450000 -0.1709270000 -0.2555650000
Ga 3.1784000000 2.9735100000 3.7630000000 0.0329910000 -0.3656460000 -0.3556110000
Ga 1.8640400000 2.9827800000 9.2824000000 -0.5066720000 -0.5486060000 -1.1229180000
Ga 3.2052500000 5.9171000000 3.7641600000 -0.7585980000 -0.0998110000 -0.5424130000
Ga 1.8654800000 5.9619800000 9.2516900000 0.1167560000 -0.8077420000 -0.6836410000
Ga 7.4860600000 0.0394200000 1.7375400000 -0.6257000000 -0.8222890000 -0.4025350000
Ga 6.1291900000 8.8865900000 7.1740600000 -0.0952220000 0.3110540000 1.1505200000
Ga 7.4618300000 2.9637100000 1.7229600000 0.0586120000 0.2496800000 0.0290210000
Ga 6.1168800000 2.9656800000 7.2045200000 0.1115090000 0.1313890000 0.5495120000
Ga 7.4597900000 5.9562500000 1.7622200000 -0.4132330000 -0.4656710000 -0.8493210000
Ga 6.1311300000 5.9373900000 7.2217400000 -0.4757590000 -0.3516760000 0.1373280000
Ga 9.1447000000 1.4954200000 3.7691900000 0.5414440000 0.1345550000 -0.1004600000
Ga 7.8240600000 1.4794700000 9.2530400000 -0.4227320000 0.0064090000 -0.5410190000
Ga 9.1557900000 4.4474300000 3.7642400000 0.2413490000 -0.1763130000 -0.2056770000
Ga 7.8088900000 4.4640600000 9.2655200000 0.1176970000 -0.3464340000 -0.6394360000
Ga 9.1227700000 7.4027700000 3.7843200000 0.4386780000 0.1607720000 -0.4001690000
Ga 7.7977700000 7.3894200000 9.2291400000 0.5218290000 0.8809200000 0.3202430000
Ga 1.4364000000 1.4777700000 1.7441700000 0.6103600000 0.0584190000 -0.2756600000
Ga 0.1755900000 1.4761000000 7.1859400000 -0.3232510000 0.5988650000 0.9536580000
Ga 1.4578800000 4.4509900000 1.7460200000 0.9255200000 0.0095200000 0.0292010000
Ga 0.1459800000 4.4806900000 7.2441300000 -0.3134080000 -0.7640880000 0.0029020000
Ga 1.4711500000 7.4096400000 1.7167600000 0.0228230000 0.0801510000 0.0226450000
Ga 0.1421500000 7.4245700000 7.1893000000 -0.0829520000 -0.7175170000 1.1603500000
O 1.8273300000 8.8915500000 0.5832300000 0.5323230000 0.2125510000 0.5251940000
O 0.4564400000 8.8645100000 6.1135100000 0.8610510000 0.6148010000 -1.3419790000
O 1.8147000000 2.9684300000 0.6075900000 0.6401210000 -0.1118430000 0.1275170000
O 0.4802000000 2.9707600000 6.0794500000 0.8489130000 0.1810000000 0.9302770000
O 1.8102700000 5.9519100000 0.6117100000 0.6878440000 -0.5616640000 -0.5641350000
O 0.4766900000 5.9323600000 6.0880200000 0.6417290000 0.0090800000 -0.3961340000
O 8.8365700000 0.0227700000 4.9067900000 -1.0416800000 -0.4344360000 -0.8504510000
O 7.4833900000 0.0017400000 10.3743800000 -0.8167300000 -0.3402510000 -0.0842920000
O 8.8376200000 2.9880700000 4.9145000000 -1.0673090000 -0.3835750000 -0.8989450000
O 7.4788100000 2.9701900000 10.3388900000 -0.7540500000 0.1343760000 1.1235580000
O 8.8051000000 5.9077400000 4.9288700000 -0.9233130000 0.4898540000 -1.5516810000
O 7.4809900000 5.9369800000 10.3736500000 -0.6583320000 -0.1611250000 0.6870060000
O 7.7968400000 1.4824200000 0.5983900000 0.7810010000 0.2966020000 0.0242280000
O 6.4575900000 1.4796600000 6.0959300000 0.7613700000 0.0920590000 -0.6371700000
O 7.7899000000 4.4499100000 0.6036500000 0.5664570000 0.0327270000 0.3831420000
O 6.4352500000 4.4672800000 6.0716100000 0.8028940000 -0.1863090000 0.3780760000
O 7.8055100000 7.4199400000 0.6098600000 0.5199540000 0.1827640000 -0.1550140000
O 6.4599000000 7.4103000000 6.0862400000 0.8686790000 -0.1131120000 -0.3354120000
O 2.8536800000 1.4558300000 4.8988600000 -1.0351770000 0.2549230000 -0.8191730000
O 1.4761700000 1.4683900000 10.3367200000 -0.4096250000 0.3031740000 1.4629060000
O 2.8641500000 4.4264400000 4.9130800000 -0.8800260000 0.3180960000 -1.0008080000
O 1.5280600000 4.4478700000 10.3382800000 -0.6821730000 0.4532500000 1.0532500000
O 2.8337500000 7.3805500000 4.8722000000 -0.5940940000 0.3638010000 0.4503200000
O 1.5160000000 7.3708100000 10.3655500000 -0.6162560000 0.9325170000 0.6819350000
O 5.5786100000 0.0005200000 1.4179800000 0.9730620000 0.3107950000 0.1360690000
O 4.2526700000 8.8895400000 6.8987500000 0.9427560000 -0.6600720000 0.2389410000
O 5.5677300000 2.9406100000 1.4348300000 1.4359040000 1.3974740000 0.3046330000
O 4.2503900000 2.9337100000 6.8866800000 0.8305940000 0.7418390000 0.2705730000
O 5.5550700000 5.9349200000 1.3904200000 1.8800780000 -0.2543440000 0.6822920000
O 4.2569200000 5.9289000000 6.8965300000 0.6301020000 0.1405350000 0.2341040000
O 5.0512900000 8.8848500000 4.0737700000 -0.7237870000 0.0812680000 -0.2074330000
O 3.6997600000 0.0183600000 9.5384400000 -0.5419900000 -0.9123290000 -0.1645350000
O 5.0353500000 2.9659300000 4.0736600000 0.0708520000 0.3016130000 -0.1074600000
O 3.7007400000 2.9532600000 9.5624100000 0.0927810000 0.6252270000 0.0339160000
O 5.0496200000 5.9200400000 4.0870100000 -0.8444160000 0.8836140000 -0.4744000000
O 3.7427000000 5.9316400000 9.5875900000 -1.1314630000 0.0852470000 -0.4555770000
O 11.5513300000 1.4890400000 1.3812200000 0.9848080000 0.0469260000 0.4786800000
O 10.2353600000 1.4939700000 6.8945100000 1.3066240000 -1.0864510000 0.4618710000
O 11.6262600000 4.4518100000 1.4031900000 -0.7174340000 -0.6393740000 0.0382260000
O 10.2079100000 4.4104400000 6.8931100000 1.2959300000 1.2344140000 0.4455000000
O 11.5746100000 7.4000200000 1.4188600000 0.3483570000 0.4432200000 0.2158850000
O 10.2512100000 7.4013200000 6.8891400000 0.1829840000 -0.4802080000 0.1660250000
O -0.9434000000 1.4841400000 4.0815300000 -0.2968930000 -0.9803540000 -0.2014930000
O -2.3144400000 1.4749400000 9.6030700000 0.0850870000 0.1358310000 -0.2835730000
O -0.9570100000 4.4353400000 4.0713700000 0.0772100000 0.1357700000 -0.1326650000
O -2.3033600000 4.4104200000 9.5850000000 -0.3054560000 1.2687530000 -0.2796140000
O -0.9372400000 7.4162000000 4.0719300000 -1.6743050000 0.0158810000 -0.3849140000
O -2.2810200000 7.3946100000 9.5646900000 -0.7279960000 0.4537330000 -0.3240710000
O 9.3035100000 0.0141800000 2.3821500000 0.2667050000 -0.3242230000 0.6575700000
O 7.9519500000 0.0153500000 7.8971900000 0.6771280000 -0.2674200000 -0.6570770000
O 9.3406200000 2.9372800000 2.4031000000 -0.4708710000 0.4073710000 0.0767700000
O 7.9728700000 2.9644800000 7.8787400000 -0.1016240000 0.1887050000 -0.0020960000
O 9.3028400000 5.9136100000 2.3524200000 -0.0310180000 0.1356400000 1.1661500000
O 7.9556700000 5.9681100000 7.8888500000 0.3926250000 -0.5068110000 -0.1254440000
O 1.3276100000 8.8556400000 3.0769500000 -0.3037770000 0.4633800000 0.1689610000
O -0.0121800000 0.0062900000 8.5871200000 -0.1624000000 -0.0750120000 -0.3389850000
O 1.3443600000 2.9456900000 3.1156300000 -0.4048940000 0.0529120000 -0.0837560000
O 0.0053500000 2.9933000000 8.5959500000 -0.3494930000 -0.1965470000 -0.2384270000
O 1.3133700000 5.9317500000 3.0868900000 0.0978680000 -0.1182630000 0.2528550000
O 0.0056700000 5.9251600000 8.5820500000 -0.2515840000 0.1998550000 -0.0420500000
O 3.3306100000 1.4791600000 2.3832500000 -0.3202010000 0.0049480000 0.4764510000
O 1.9984000000 1.4921600000 7.8895700000 0.3121870000 -0.0809240000 -0.4858520000
O 3.3246800000 4.4731400000 2.3780900000 0.1324920000 -0.2001490000 0.3357480000
O 2.0171300000 4.4377800000 7.8614800000 -0.3695110000 0.3561750000 0.6073660000
O 3.2992300000 7.4212400000 2.3675200000 0.3893910000 -0.1066010000 0.7164120000
O 1.9947900000 7.4534500000 7.8742900000 -0.1849260000 -0.3849820000 0.3184820000
O 7.3280300000 1.4729000000 3.0586000000 -0.7601400000 0.3326250000 0.9165930000
O 5.9772200000 1.5279800000 8.6029500000 -0.4998370000 -0.5288230000 -0.1881990000
O 7.3074900000 4.4499300000 3.0974300000 0.1890450000 -0.0445670000 -0.3757370000
O 5.9689600000 4.4505700000 8.5885100000 0.2677810000 0.0366750000 -0.6686520000
O 7.2761000000 7.4114600000 3.0607100000 0.3216030000 0.0427860000 0.6171080000
O 5.9771000000 7.3719600000 8.5740300000 -0.5806970000 0.5556180000 -0.0031390000
120
lattice="11.9694502500 0.0000000000 0.0000000000 0.0000000000 8.8923501510 0.0000000000 -2.6720866630 0.0000000000 10.9753114110" Properties=species:S:1:pos:R:3:force:R:3 energy=-728.3398780500 virial="171.7781920975 1.3055714723 1.1974871691 1.3055714723 198.4762909505 -1.8945303068 1.1974871691 -1.8945303068 181.0372998460"
Ga 0.0283400000 8.8603200000 4.3323400000 0.2926540000 1.6839950000 1.1602200000
Ga -1.3072800000 8.8780100000 9.8543800000 -0.6268120000 0.1170160000 -0.2705120000
Ga -0.0059800000 2.9822700000 4.3586700000 0.8637210000 -0.6026820000 -0.2297730000
Ga -1.3187400000 2.9796900000 9.8591500000 0.4930470000 -0.4712030000 0.3283410000
Ga 0.0158100000 5.9509600000 4.3517600000 -0.1402990000 -0.3814740000 -0.6050310000
Ga -1.3231900000 5.9045700000 9.8224500000 0.1104660000 0.9162200000 0.7473830000
Ga 10.6175300000 8.8743300000 1.1072500000 -0.4488360000 -0.2891460000 0.0167130000
Ga 9.2876300000 0.0043700000 6.6133200000 -0.4116330000 -0.2011530000 0.9838080000
Ga 10.6263200000 2.9628900000 1.1405900000 -0.3784250000 0.2597140000 -0.0376220000
Ga 9.2838400000 2.9653000000 6.6136700000 -0.5877940000 -0.4658800000 0.0726130000
Ga 10.5995100000 5.9100000000 1.1133100000 -0.0092180000 0.2453230000 0.7707910000
Ga 9.2643100000 5.9127600000 6.6349200000 -0.5164280000 0.3673460000 -0.5635220000
Ga 6.0289200000 1.4627200000 4.3732900000 -0.6230220000 0.6658490000 -0.1717300000
Ga 4.6604700000 1.4874700000 9.8707000000 0.8041880000 0.6058750000 -0.7198690000
Ga 5.9711400000 4.4653600000 4.3786300000 0.9967140000 -0.7674450000 -0.6094320000
Ga 4.6631100000 4.4283000000 9.8083300000 -0.2035960000 0.4154410000 1.4847120000
Ga 5.9825300000 7.3990500000 4.3535900000 0.5101660000 0.4237740000 0.5540900000
Ga 4.6622600000 7.4139300000 9.8483600000 0.2630980000 0.1551370000 -0.1400860000
Ga 4.6311500000 1.4860600000 1.1256500000 -0.3268540000 0.4833670000 0.3436050000
Ga 3.2988300000 1.4634400000 6.6537900000 -0.5079550000 0.8783190000 -1.4135600000
Ga 4.6163500000 4.4333300000 1.1016000000 -0.9687360000 0.2762850000 0.4750710000
Ga 3.3015000000 4.4263000000 6.6140800000 -0.1545270000 0.1635430000 0.3462510000
Ga 4.6265000000 7.3892100000 1.1374900000 -0.2082570000 0.3183660000 0.0816730000
Ga 3.2810900000 7.3861100000 6.6225500000 0.3792110000 0.4390370000 0.1889760000
Ga 3.1764400000 8.8780500000 3.7993000000 -0.2664570000 0.7977030000 -1.0101350000
Ga 1.8511500000 0.0079400000 9.2721200000 -0.4376500000 -0.4041600000 -0.6136760000
Ga 3.2054700000 2.9786200000 3.7475500000 -0.8309280000 -0.7906960000 -0.2967010000
Ga 1.8337600000 2.9736400000 9.2490300000 -0.1243480000 -0.2257210000 -0.1629240000
Ga 3.1692900000 5.9121700000 3.7848800000 -0.2509880000 0.1563270000 -0.5224310000
Ga 1.8188800000 5.9581400000 9.2371700000 0.5913740000 -0.4427120000 -0.0152810000
Ga 7.4208500000 0.0071600000 1.7288800000 1.1332590000 -0.1290860000 0.2092590000
Ga 6.1021400000 0.0157600000 7.2034600000 0.7321730000 -0.3583390000 0.5935200000
Ga 7.4651100000 2.9738300000 1.7306900000 0.0059070000 0.3131960000 0.0450930000
Ga 6.1016200000 2.9831500000 7.2252400000 0.7633240000 -0.2070620000 0.2708080000
Ga 7.4726400000 5.9649200000 1.7422700000 -0.2680080000 -1.2349490000 -0.1188920000
Ga 6.1453100000 5.9303100000 7.1954900000 -0.3650860000 -0.1089880000 0.5769700000
Ga 9.1419800000 1.4727800000 3.7716600000 0.4525460000 -0.2126680000 -0.2400980000
Ga 7.8236600000 1.5072300000 9.2529800000 -0.0692720000 -0.3249950000 -0.5153220000
Ga 9.1370600000 4.4280200000 3.7933100000 0.2613600000 0.6711830000 -0.7895760000
Ga 7.8409000000 4.4443200000 9.2492100000 -0.5745820000 0.2549480000 -0.1532700000
Ga 9.1094900000 7.4219300000 3.7616700000 1.2599570000 -0.0559860000 -0.4007560000
Ga 7.8133600000 7.4094100000 9.2390500000 0.1942040000 0.2723500000 -0.1190320000
Ga 1.4711400000 1.4888700000 1.7300900000 -0.2406930000 -0.5682010000 0.3391530000
Ga 0.1407900000 1.4954300000 7.2246500000 0.0340470000 -0.3109310000 -0.1334280000
Ga 1.4633000000 4.4591400000 1.7277300000 0.5270640000 0.0656960000 0.3893700000
Ga 0.1316500000 4.4536300000 7.2010000000 0.2569290000 0.0318230000 -0.0268500000
Ga 1.4899900000 7.4228300000 1.7242800000 -0.8030000000 -0.2518680000 0.0700940000
Ga 0.1360200000 7.4093300000 7.2202800000 -0.4418370000 0.1492520000 0.2540270000
O 1.8437700000 8.8562500000 0.5870900000 0.5429380000 0.7808990000 0.2152150000
O 0.4718800000 8.8668600000 6.1192900000 0.5620790000 0.6030360000 -1.1203370000
O 1.7877100000 2.9558300000 0.6371200000 0.8660570000 0.3268810000 -1.0335860000
O 0.4984700000 2.9705000000 6.0715700000 0.5755220000 0.0584420000 0.5365900000
O 1.8042900000 5.9515300000 0.5905300000 0.7711580000 -0.5308290000 -0.3372100000
O 0.4697600000 5.9699600000 6.0607700000 0.8002900000 -0.6725370000 0.7196320000
O 8.8208000000 8.8610200000 4.9169600000 -0.9340900000 0.6170130000 -0.6789970000
O 7.5208500000 0.0115400000 10.3458800000 -1.0165790000 0.0526720000 0.4877800000
O 8.8263300000 2.9759100000 4.8912100000 -0.8947560000 -0.5484200000 0.2460470000
O 7.4849000000 2.9832600000 10.3671900000 -0.6647180000 -0.0300150000 0.6869940000
O 8.8382500000 5.9531700000 4.8628800000 -0.6553910000 -0.4466420000 1.2222480000
O 7.5232000000 5.9523900000 10.3804900000 -0.9632760000 -0.5897920000 -0.4447980000
O 7.7965400000 1.4819700000 0.5986500000 0.7829820000 -0.0135140000 0.4640280000
O 6.4596100000 1.4827300000 6.0876100000 0.8688250000 0.2393090000 0.0848380000
O 7.7983500000 4.4443200000 0.5946500000 0.5690420000 0.2809340000 -0.3421960000
O 6.4740400000 4.4408700000 6.0802200000 0.8096170000 0.0576570000 0.2615930000
O 7.8011700000 7.4009300000 0.6038600000 0.5771170000 0.5635260000 -0.1080380000
O 6.4535500000 7.4023600000 6.0879600000 0.7073790000 0.2943440000 -0.2446460000
O 2.8094200000 1.4945600000 4.8569500000 -0.2555850000 -0.0429070000 1.4939830000
O 1.4975000000 1.4469200000 10.3743600000 -0.7492540000 0.8655360000 0.2680890000
O 2.8666000000 4.4171300000 4.9011000000 -0.9126720000 0.5831300000 -0.1905480000
O 1.5009000000 4.4608200000 10.3558900000 -0.9110270000 -0.1053390000 -0.0591730000
O 2.8654000000 7.4360000000 4.8915300000 -0.8937360000 -0.9000220000 0.1777040000
O 1.4926800000 7.4108100000 10.3838200000 -0.5418780000 0.1778460000 -0.0638340000
O 5.6066100000 0.0113100000 1.4038200000 -0.2645610000 -0.5716030000 0.1347170000
O 4.2713800000 0.0147800000 6.8900900000 -0.0070360000 -1.1728880000 0.1407900000
O 5.6070100000 3.0080300000 1.3934400000 0.2756060000 -1.4347500000 0.1985580000
O 4.2891000000 2.9663700000 6.8945500000 -0.3994530000 -0.4373210000 0.0064330000
O 5.5747600000 5.8930100000 1.3896700000 1.0376260000 0.7514450000 0.4792950000
O 4.2812500000 5.9147400000 6.8712800000 0.1935310000 0.0955730000 0.2137560000
O 5.0267800000 8.8828900000 4.1076000000 -0.2250730000 0.2973200000 -0.3981170000
O 3.7095900000 0.0407800000 9.5415000000 -0.3597840000 -1.1904590000 -0.1468100000
O 5.0305700000 2.9778500000 4.0676700000 0.4627940000 -0.8303170000 -0.0626640000
O 3.6869400000 2.9632000000 9.5401300000 -0.4305920000 -0.2800900000 -0.0943340000
O 5.0499000000 5.9314600000 4.0804000000 -1.3791570000 0.0982130000 -0.5381120000
O 3.7111000000 5.9284100000 9.5600300000 -0.9279560000 0.1228210000 -0.3168940000
O 11.5630300000 1.4611600000 1.3786300000 0.9272260000 0.3151880000 0.4318350000
O 10.2414000000 1.4890500000 6.9071900000 0.5687070000 -0.0639100000 0.1849790000
O 11.6111100000 4.4566500000 1.4347500000 -0.6777340000 -0.4000670000 -0.0772670000
O 10.2183100000 4.4316800000 6.9298800000 1.0729290000 0.4996280000 0.2192890000
O 11.5679200000 7.3956100000 1.4190300000 0.7534090000 -0.0166260000 0.1851740000
O 10.2186700000 7.3958000000 6.9335100000 0.6237970000 -0.0283700000 0.1235930000
O -0.9561900000 1.4949500000 4.0904500000 -0.3181680000 -0.6932340000 -0.1218980000
O -2.2875200000 1.5073000000 9.5822700000 -0.0285200000 -0.6326400000 -0.1864250000
O -0.9499800000 4.4438300000 4.0870300000 -0.7918210000 0.8086630000 -0.1807060000
O -2.2835300000 4.4438600000 9.5693200000 -0.5438570000 -0.1868290000 -0.2631530000
O -0.9229100000 7.4366300000 4.0476300000 -1.6718180000 -0.9367440000 -0.2487170000
O -2.3099200000 7.3894700000 9.5628700000 0.2880720000 0.2795160000 -0.1060460000
O 9.3385900000 8.8741300000 2.4023400000 -0.7945920000 0.2256470000 0.1551380000
O 7.9584000000 8.8802200000 7.8969600000 0.3211440000 0.2864340000 -0.5455450000
O 9.2908600000 2.9582100000 2.4053500000 0.4863860000 -0.0441880000 -0.1082670000
O 7.9756800000 2.9718500000 7.8702400000 -0.1415230000 0.0484230000 0.2245560000
O 9.3126500000 5.9349200000 2.4070500000 0.0291300000 -0.1203520000 -0.0221580000
O 7.9390400000 5.9116300000 7.8965200000 0.6730320000 -0.1271060000 -0.2851260000
O 1.3248700000 8.8922900000 3.0963700000 0.2755570000 0.0128090000 -0.4372290000
O -0.0353700000 8.8889000000 8.5714700000 0.4333310000 0.0379960000 0.0195500000
O 1.3178000000 2.9712300000 3.1013400000 -0.1136570000 -0.0554720000 -0.0485870000
O -0.0137900000 2.9621100000 8.5856600000 0.0129120000 0.1466010000 -0.1497140000
O 1.3135900000 5.9282600000 3.0763200000 0.2502410000 0.0396160000 0.3692430000
O -0.0133200000 5.9298100000 8.5867000000 0.1273950000 -0.1245390000 -0.6238300000
O 3.2983800000 1.4572400000 2.3753000000 0.7367230000 0.1046720000 0.1358320000
O 2.0005100000 1.4725600000 7.9025200000 -0.2834940000 0.1228680000 0.0698120000
O 3.3128400000 4.4177300000 2.4222500000 0.5307100000 0.4551080000 -0.6326950000
O 2.0003200000 4.4421700000 7.8712100000 -0.3097970000 0.1730220000 0.1868520000
O 3.2893800000 7.3968000000 2.3686300000 0.8833620000 -0.0206760000 0.7491560000