120
lattice="12.4857782130 0.0000000000 0.0000000000 0.0000000000 9.2759407870 0.0000000000 -2.7873528650 0.0000000000 11.4487550590" Properties=species:S:1:pos:R:3:force:R:3 energy=-732.5348036900 virial="-23.3455229103 4.0118662208 -3.1715110169 4.0118662208 -29.4514121833 0.4357985870 -3.1715110169 0.4357985870 -13.1116052195"
Ga -0.0365500000 6.2234000000 4.4748500000 -0.4089930000 0.6392340000 0.3437240000
Ga 10.9989000000 6.1600300000 1.2212900000 1.5290400000 0.8796950000 0.3134150000
Ga 6.2680400000 7.8258700000 4.6375600000 -0.2498100000 -0.3950890000 -0.1540680000
Ga 4.8307200000 7.8116000000 1.0734300000 -0.4386090000 -0.8266860000 1.8750340000
Ga 3.3202100000 6.1909800000 3.9188500000 0.5483560000 0.1063580000 0.0440770000
Ga 7.7556700000 6.1904800000 1.7474700000 -0.8969590000 -0.0741620000 -0.2889560000
Ga 9.4437000000 7.7191100000 3.9000400000 0.6563690000 0.5439710000 0.3013990000
Ga 1.6133700000 7.6183400000 1.8360100000 -0.8803480000 0.8951400000 -0.8785830000
Ga -1.2881300000 6.0744700000 10.3212000000 -1.3750810000 0.2404010000 -0.9642750000
Ga 9.7512900000 6.2737000000 6.9002500000 -0.1420310000 -0.8352890000 0.7562830000
Ga 4.9018500000 7.6013800000 10.2194000000 0.1175950000 0.5499580000 0.9144810000
Ga 3.5181800000 7.6281000000 6.7893100000 -0.3905470000 0.8616470000 0.0779710000
Ga 1.9344100000 6.2276200000 9.6196300000 -1.1139270000 -0.5109130000 -0.9737520000
Ga 6.4803500000 6.1496300000 7.6454800000 -0.6201060000 0.3396850000 -1.1170830000
Ga 8.1566800000 7.6088300000 9.6939600000 0.8748420000 1.2341740000 0.3961350000
Ga 0.1418600000 7.8142600000 7.4153600000 0.3952090000 -0.1391630000 0.1810220000
Ga -0.0449100000 0.0448000000 4.4071300000 -0.3976830000 -0.1310170000 0.9668590000
Ga 11.0258000000 0.0198800000 1.2457500000 0.9000820000 -0.8506250000 -1.4836520000
Ga 6.2030100000 1.6232100000 4.4419800000 -0.8474220000 0.0052420000 0.4804900000
Ga 4.8424900000 1.5677500000 1.1043100000 1.1582620000 0.3101940000 -0.3495500000
Ga 3.2515800000 0.0946500000 3.9464900000 1.0588700000 -1.3859550000 0.0119550000
Ga 7.7744000000 9.2471400000 1.8686200000 0.3456760000 -0.5129120000 -0.4013300000
Ga 9.5892800000 1.5881700000 3.9224000000 -0.4159500000 -0.4143960000 0.0963810000
Ga 1.5420300000 1.5617300000 1.8294500000 -0.5584770000 -1.4170380000 -0.5492100000
Ga -1.2694700000 9.1406100000 10.2771000000 -0.5578190000 0.7840830000 -0.1223270000
Ga 9.6637200000 0.0087600000 6.8880500000 -0.2471540000 1.0941960000 -0.6641670000
Ga 4.8127200000 1.4430300000 10.2436000000 1.0105300000 0.4292990000 0.5852470000
Ga 3.3174100000 1.4475800000 6.9393600000 1.0818060000 0.2156240000 -0.0368810000
Ga 1.8795600000 9.2652100000 9.5755300000 0.3789670000 -0.5658360000 -0.0876530000
Ga 6.5026600000 0.0878300000 7.4998800000 -0.7567010000 -0.5784560000 -0.5133860000
Ga 8.2591600000 1.5476500000 9.6775200000 0.1913310000 -1.1941160000 0.3209050000
Ga 0.0175000000 1.6357200000 7.4194600000 0.7747680000 -0.3438160000 0.3187650000
Ga 0.1083200000 3.1484700000 4.5227500000 -1.5734970000 0.7361240000 0.0064890000
Ga 10.9253000000 3.1726500000 1.2029300000 1.2710150000 -2.0272110000 -0.9000760000
Ga 6.3603300000 4.7694200000 4.6497100000 -1.6208720000 -0.5148010000 -1.2747850000
Ga 4.8303400000 4.6895900000 1.1439300000 -0.7917310000 -0.3406990000 0.0424570000
Ga 3.3350300000 3.0721700000 3.9018000000 0.9262350000 1.0084720000 0.6327510000
Ga 7.8080000000 3.0058600000 1.6814800000 -1.1731590000 0.7302360000 -0.3203390000
Ga 9.3800600000 4.6651800000 3.9638900000 1.1176120000 0.5874470000 -0.2436240000
Ga 1.5270200000 4.5289700000 1.8051700000 0.1363040000 1.1343670000 0.0699960000
Ga -1.3374700000 3.0289700000 10.3407000000 -0.8171600000 0.3448060000 -1.0917950000
Ga 9.6188200000 3.0843500000 6.8361400000 1.0834390000 1.3819410000 1.6262360000
Ga 4.7229400000 4.5579500000 10.1943000000 -0.9886940000 0.4035500000 1.3472360000
Ga 3.4332400000 4.5615600000 6.8951000000 -0.6858660000 -0.5690270000 -0.0775280000
Ga 1.8139600000 3.0901900000 9.6767900000 -0.4722740000 -0.1367870000 -0.4901160000
Ga 6.3778100000 3.0485800000 7.6040900000 -0.1755740000 -0.3294390000 -1.0441460000
Ga 8.0972400000 4.5899700000 9.7176900000 0.9077750000 0.1760810000 0.1106710000
Ga 0.1917700000 4.7742400000 7.5201400000 -1.2145380000 -0.2117910000 -0.5153720000
O 2.0007700000 6.0049800000 0.6473300000 -0.2670090000 0.6810510000 0.1276920000
O 9.2374900000 6.2672000000 5.1453600000 -0.6553310000 -0.6710430000 -0.8988560000
O 8.2234000000 7.7019100000 0.5815500000 -0.4915450000 0.0338880000 0.3099860000
O 2.9447400000 7.7499300000 5.0185200000 0.2037420000 -0.1979980000 0.8388060000
O 5.7397200000 6.2176500000 1.4349400000 0.7137580000 0.9086610000 0.0842490000
O 5.3364900000 6.2993300000 4.2236100000 -0.5457180000 -1.1039200000 0.4463330000
O 12.0914000000 7.7385800000 1.4797000000 -0.3010730000 -0.8478160000 0.3279060000
O 11.3916500000 7.7990600000 4.2587700000 0.6047040000 -0.6965180000 -0.2076210000
O 9.6066000000 6.1440300000 2.4303500000 0.1478280000 0.0142550000 1.0500000000
O 1.3920800000 6.2667000000 3.2471200000 -0.2358210000 -0.7044930000 -0.2376320000
O 3.4240500000 7.8541200000 2.5381200000 1.1470260000 -0.5393540000 -1.4180330000
O 7.5224400000 7.6297400000 3.2414600000 1.2577560000 0.9688620000 -0.5878400000
O 0.4802100000 6.3237500000 6.2659800000 -0.2447700000 -0.8618390000 0.1059790000
O 7.9175700000 6.1511000000 10.8868000000 -0.6765140000 -0.6057090000 -0.5098480000
O 6.8786700000 7.6934700000 6.3666000000 -0.4134290000 0.3051280000 0.7134900000
O 1.5313800000 7.6728300000 10.7993000000 -0.4742340000 1.1611790000 -1.0406140000
O 4.4253500000 6.0583800000 7.1230000000 1.6983950000 0.8380940000 0.6521700000
O 3.7359700000 6.1699900000 10.0090000000 1.8227540000 -0.3954610000 -0.1482190000
O 10.6618000000 7.8410500000 7.2303000000 0.5693330000 -1.1273950000 0.2841920000
O -2.3872100000 7.6949000000 10.1104000000 0.9269640000 -1.3766140000 -0.4546810000
O 8.3528800000 6.1402600000 8.2602800000 -0.1819470000 -0.0155930000 0.0567590000
O 0.0051700000 6.1732800000 8.8903800000 -0.7099200000 0.6022210000 0.8716600000
O 2.1107400000 7.5802500000 8.0800000000 -0.2481660000 1.1315210000 0.6829170000
O 6.3046500000 7.7283500000 8.9860100000 -0.4465060000 -0.5418260000 -0.5700870000
O 1.8243900000 9.2247600000 0.6419500000 0.5796400000 0.0326650000 0.8375030000
O 9.2235200000 0.0395000000 5.0638200000 -0.2799060000 0.1109520000 0.6841110000
O 8.2228600000 1.3817100000 0.6120400000 -0.4932490000 1.0646510000 -0.5964970000
O 2.9237600000 1.5101100000 5.1581400000 -0.2474800000 1.1782660000 -1.0964980000
O 5.9254400000 9.2657900000 1.2904600000 -0.7168030000 0.8915050000 0.1297470000
O 5.2539200000 9.2672100000 4.1970500000 -0.1313120000 1.2814450000 -0.2133470000
O 12.0129000000 1.5412100000 1.5417200000 0.1429160000 1.3118960000 -0.2124410000
O -0.9856500000 1.6517700000 4.2137200000 0.4160530000 -0.0186860000 0.1380230000
O 9.7711500000 9.2730900000 2.6010400000 -1.2675320000 -0.0570430000 -0.4114190000
O 1.4224700000 0.0762300000 3.2811300000 -0.3056560000 0.6249960000 -0.8801170000
O 3.6498500000 1.6620400000 2.4646400000 -1.9441740000 -0.5929940000 1.1343210000
O 7.6189900000 1.5038200000 3.2557600000 0.3131350000 0.0975430000 -0.7797740000
O 0.4156300000 0.0191100000 6.2414100000 0.0449690000 1.0842700000 0.0234740000
O 7.8477100000 9.1748900000 10.8285000000 -0.0035670000 0.9985250000 0.1452690000
O 6.6446600000 1.5930300000 6.2368200000 0.5684460000 -0.1460930000 1.1915130000
O 1.3732900000 1.4348300000 10.8114000000 0.7509300000 0.6369860000 0.0752900000
O 4.4584900000 0.0010000000 7.0045400000 0.5038520000 -1.0693780000 0.6911290000
O 3.9897900000 9.1694500000 9.8349100000 -1.7728480000 -0.0383480000 -0.1937360000
O 10.6398000000 1.5944300000 7.1948600000 -0.3782470000 -0.5935250000 -0.1688760000
O -2.2609800000 1.4578500000 10.0611000000 -0.6611170000 0.0963850000 -0.2947340000
O 8.3543200000 9.2666700000 8.2142700000 -0.5222880000 0.3134650000 0.2014060000
O 0.0189900000 0.0191800000 8.8620100000 -0.4686630000 -0.6649830000 0.3717990000
O 1.9771700000 1.4742600000 8.2064900000 0.0359440000 0.6013700000 0.1099250000
O 6.2514200000 1.6238600000 8.9720000000 -0.2831790000 -0.5976740000 -0.0732480000
O 1.9052400000 3.0342900000 0.6695100000 0.1915130000 0.0968940000 0.0812590000
O 9.2786300000 3.1448500000 5.1003800000 -0.8238760000 -0.4009680000 -1.6514950000
O 8.0211800000 4.7395800000 0.5175100000 0.3809010000 -1.3320970000 0.4518730000
O 2.9719700000 4.6706600000 5.0982600000 -0.1962180000 -0.4885250000 0.1471770000
O 5.8788000000 3.1859700000 1.4245900000 -0.3586330000 -1.5905690000 -0.2777530000
O 5.2419800000 3.2332700000 4.2315200000 0.7062310000 -0.4535360000 0.3737990000
O 12.0095500000 4.5693200000 1.5554300000 0.5628370000 1.0417720000 -0.0220640000
O -1.0359000000 4.6846900000 4.2866100000 0.0048600000 -0.4688310000 -0.4441260000
O 9.5514000000 3.0613400000 2.3907300000 0.5883820000 0.2231730000 1.1918880000
O 1.4705900000 3.2000100000 3.2626100000 -0.5943640000 -1.0652940000 -0.1324910000
O 3.4729200000 4.6286800000 2.5416400000 0.2177140000 0.3839270000 -0.7581380000
O 7.5429600000 4.6224600000 3.1674400000 0.7004860000 0.2391460000 0.8001990000
O 0.3139600000 3.2447800000 6.3315800000 0.8747880000 -0.8605370000 0.3588630000
O 7.7327100000 3.0447600000 10.8119000000 0.1919150000 0.0562750000 0.6050520000
O 6.8267900000 4.5399300000 6.3938000000 -0.0752940000 0.6972980000 1.1954490000
O 1.5340700000 4.6663800000 10.7462000000 -0.0333460000 -0.3793230000 1.2816190000
O 4.3773000000 2.9818000000 7.2472100000 0.0961360000 0.6747710000 0.2787330000
O 3.7245600000 2.9800700000 10.1221000000 0.4698670000 -0.1016260000 -0.4879920000
O 10.6182000000 4.6825300000 7.2214600000 0.2191960000 -0.1704220000 -0.0936150000
O 10.0181800000 4.5515500000 10.0173000000 1.4892830000 0.1166750000 0.5121950000
O 8.3680500000 2.9576800000 8.2037300000 -1.1021400000 0.6545720000 0.5366990000
O -0.0779900000 3.1738300000 8.9320000000 0.5109950000 -0.6191130000 0.2455700000
O 2.0111200000 4.6720400000 8.2277200000 1.2162790000 -0.7489200000 -0.6749400000
O 6.1786700000 4.7095300000 9.1402800000 1.0292500000 -0.3369160000 -2.0866180000
120
lattice="12.4857782130 0.0000000000 0.0000000000 0.0000000000 9.2759407870 0.0000000000 -2.7873528650 0.0000000000 11.4487550590" Properties=species:S:1:pos:R:3:force:R:3 energy=-732.0999561200 virial="-7.7622268060 -3.9826601511 1.3340114369 -3.9826601511 -18.5957751479 -0.3302959020 1.3340114369 -0.3302959020 -22.3216552701"
Ga 0.0118600000 6.2323700000 4.5704700000 -0.7392240000 -0.5409750000 -0.3570980000
Ga 10.9962000000 6.2151400000 1.2336200000 -0.2095270000 -0.0969580000 0.6105620000
Ga 6.3377500000 7.8432300000 4.3978900000 -0.9101230000 -1.2491110000 1.7274790000
Ga 4.8003300000 7.6735000000 1.0389900000 -0.3562600000 1.2029080000 0.3392410000
Ga 3.2624500000 6.2430200000 3.8632300000 0.7202010000 -0.4055540000 1.0714350000
Ga 7.7406200000 6.1413700000 1.7380300000 0.4382930000 0.9313950000 -0.4885730000
Ga 9.4851100000 7.7209700000 3.9920000000 0.5530720000 1.0293190000 -0.3404730000
Ga 1.4346400000 7.7804400000 1.8353100000 1.6926380000 0.1161890000 -0.7670920000
Ga -1.4772500000 6.1788400000 10.1799000000 0.8402650000 -2.4553590000 1.6806600000
Ga 9.5894500000 6.2072100000 6.9801200000 -1.1003940000 0.1624560000 -0.9386140000
Ga 4.8774100000 7.6507400000 10.2419000000 -1.1772790000 0.1760090000 -0.6028020000
Ga 3.4094800000 7.5759500000 6.9529600000 0.7174910000 1.4814760000 -1.1858300000
Ga 1.8368400000 6.1139500000 9.6707700000 0.1664270000 -1.2372990000 -0.6775810000
Ga 6.3002300000 6.1631000000 7.5670600000 1.6447700000 0.0240430000 -0.6281250000
Ga 8.1474800000 7.7290400000 9.7634400000 0.4538030000 0.1306090000 -0.2729340000
Ga 0.1029900000 7.7322200000 7.5183100000 -0.1111310000 -0.5026580000 -0.2750670000
Ga -0.1289000000 0.0087600000 4.5490200000 0.6907110000 0.7133700000 -0.8675180000
Ga 11.2614000000 0.0957800000 1.1838200000 -0.4011810000 -0.7671390000 0.8746510000
Ga 6.3359800000 1.6190300000 4.6197000000 -0.2919840000 -0.1655700000 1.0469540000
Ga 4.8096500000 1.4515500000 1.1636400000 0.3601270000 -0.2700220000 -0.7875920000
Ga 3.4715300000 0.0187700000 3.7939700000 -0.7987370000 -0.7424080000 0.6233460000
Ga 7.8260700000 0.0061500000 1.6639300000 0.2635480000 -0.0672130000 -0.2582000000
Ga 9.4221300000 1.5837600000 3.8848300000 1.6177530000 -0.0259000000 0.4182750000
Ga 1.5346900000 1.6621100000 1.9520300000 1.7601480000 -0.4408910000 -0.5741050000
Ga -1.3619300000 0.0352500000 10.2321000000 0.8746550000 -1.5175380000 1.5214600000
Ga 9.6734300000 0.0677600000 6.9495700000 0.1552190000 0.6617980000 -0.4626400000
Ga 4.8816000000 1.4892100000 10.2201000000 -0.8634530000 -0.9018970000 -0.1045810000
Ga 3.5217400000 1.5029600000 6.7895400000 0.0124930000 -1.9396990000 -0.0723930000
Ga 1.9407500000 9.2309800000 9.4897700000 0.3824030000 -0.0056010000 0.9597550000
Ga 6.3962700000 9.1568900000 7.6066500000 -0.4070060000 0.5719110000 -1.6933890000
Ga 8.1484200000 1.4813500000 9.5723000000 0.5647160000 0.6726000000 1.2533530000
Ga 0.1798800000 1.5314300000 7.4466800000 0.0129500000 -0.5593350000 -0.0167600000
Ga -0.1213700000 3.1304200000 4.5642400000 -0.5082870000 0.0579860000 -2.4089940000
Ga 11.1519000000 3.1163900000 1.2049300000 -1.1440440000 -0.2137330000 0.0597570000
Ga 6.2949100000 4.7195100000 4.5471600000 -0.4618130000 -0.7127140000 1.2035540000
Ga 4.7652800000 4.6695200000 1.2057300000 0.2417440000 -1.6838170000 0.3007600000
Ga 3.3600400000 3.1733400000 4.0001200000 -0.2280980000 0.0137020000 -0.4800840000
Ga 7.6271000000 3.1553100000 1.9870100000 0.7061470000 -0.4798450000 -2.2740080000
Ga 9.4787200000 4.6274100000 3.9552800000 0.9945770000 1.0442300000 -0.6027720000
Ga 1.4999300000 4.7672500000 1.8137600000 -0.4041410000 -1.4547420000 -0.8288460000
Ga -1.3058400000 3.0024600000 10.2534000000 -0.2849060000 1.0150430000 0.8122990000
Ga 9.6678500000 3.2552600000 7.0002500000 -0.2228560000 -1.5758000000 -1.2123460000
Ga 4.8329300000 4.5368700000 10.2227000000 -0.2758420000 0.3511890000 0.9572120000
Ga 3.5645300000 4.5535900000 6.9184500000 -0.8760650000 0.4570560000 -0.1536360000
Ga 1.9877100000 3.0294000000 9.5180900000 -1.1080940000 -0.2975690000 0.8485660000
Ga 6.3532000000 3.0582000000 7.5713100000 0.9045280000 -0.0064290000 -0.5133570000
Ga 8.1377400000 4.5863900000 9.6710300000 0.5026870000 -0.0195580000 0.8787690000
Ga 0.0976700000 4.5189500000 7.3978600000 1.0566140000 1.7414480000 0.6990990000
O 1.8140000000 6.1865900000 0.5843300000 0.3709220000 0.4059340000 -0.2131800000
O 9.2367900000 6.1996300000 5.0842400000 -0.7011350000 -0.2655150000 1.0894150000
O 8.0831600000 7.7093500000 0.5459400000 0.2110590000 -0.4012240000 0.5579780000
O 3.0648600000 7.7175000000 5.1457200000 -0.2336820000 0.0325010000 -1.3158040000
O 5.7523800000 6.1979700000 1.4434800000 1.2470210000 -0.8304450000 0.0714350000
O 5.3167600000 6.1838200000 4.1336900000 0.0927800000 1.3713450000 0.1900940000
O -0.3448800000 7.6345300000 1.4175600000 -1.3537980000 2.0680280000 0.0465830000
O -1.0303200000 7.7343600000 4.2828400000 -0.3820100000 -0.0761030000 -0.3429120000
O 9.6318300000 6.3965600000 2.5223900000 0.1164750000 -1.3047220000 -0.7626400000
O 1.2831500000 6.0867000000 3.1993100000 0.7901280000 1.2058520000 0.6901640000
O 3.4899800000 7.6534700000 2.4836000000 -0.3068110000 0.6911600000 -0.2133170000
O 7.6719900000 7.8954800000 3.1154400000 -0.3333840000 -0.4596580000 0.7165310000
O 0.5418600000 6.2241300000 6.3124000000 -0.3209550000 -0.4622020000 0.7199500000
O 7.9118300000 6.2473000000 10.8939000000 -0.7355680000 -0.9129100000 -0.9241770000
O 6.7506400000 7.6351300000 6.3380100000 0.0223170000 0.5878660000 -0.5333090000
O 1.5708300000 7.6082500000 10.6945000000 -0.2345560000 1.0106770000 0.8917080000
O 4.4826600000 6.1111300000 7.1679600000 -0.1698650000 -0.0860580000 0.4327340000
O 3.8595400000 6.0885800000 9.8715600000 -0.0121540000 0.3126300000 0.0742060000
O 10.5381000000 7.7258400000 7.0842300000 1.7636450000 0.8365030000 0.7481660000
O -2.3393200000 7.6683600000 9.9648300000 -1.1451350000 2.9008430000 -0.4862450000
O 8.2374300000 6.1346600000 8.3249400000 0.5419330000 0.0195950000 -0.5104750000
O -0.1088600000 6.1073500000 8.9389900000 1.4299940000 0.2389020000 -0.8029250000
O 2.0491800000 7.8175400000 8.1177600000 -0.9848690000 -0.9578060000 0.7708050000
O 6.2369500000 7.7220100000 8.9319400000 0.0426450000 -0.5094500000 0.8706540000
O 1.9717800000 0.0681600000 0.6539300000 -0.7264650000 -0.4105870000 -0.7512770000
O 9.1523300000 0.0950800000 5.1719000000 -0.1494230000 -0.4030970000 -0.9581320000
O 7.9582900000 1.5716900000 0.5521700000 0.3479500000 0.0359170000 1.3053730000
O 3.1281300000 1.5172500000 4.9463900000 -0.6273740000 0.4516610000 1.6691950000
O 5.8273000000 9.1738200000 1.5607900000 -0.5836530000 0.2169540000 -0.2103960000
O 5.3044600000 0.0979700000 4.4559200000 0.1941520000 -0.6824570000 -0.8085850000
O -0.2361100000 1.6641000000 1.5363300000 -2.2856390000 -1.0458910000 -0.5280640000
O 11.3610800000 1.5721300000 4.1718100000 0.9502300000 0.0124830000 0.4891220000
O 9.7598700000 0.0598000000 2.4152600000 -0.2375090000 0.3468880000 0.0991290000
O 1.3266500000 9.2359200000 3.1980600000 -0.1195370000 0.2875970000 0.8323200000
O 3.4976100000 1.5215900000 2.4824600000 -0.4464560000 0.1037220000 0.0077240000
O 7.6343500000 1.6965300000 3.2789200000 -0.4871450000 -0.6382020000 -0.1979540000
O 0.4740500000 9.2273500000 6.2842900000 -0.2548820000 0.6646430000 0.6146140000
O 7.8385100000 0.0375600000 10.9112000000 0.1243400000 -0.2933270000 -0.7642620000
O 6.7262100000 1.5336200000 6.4625200000 0.1148630000 -0.5072040000 -0.8843230000
O 1.6364500000 1.3670100000 10.7933000000 -0.1516960000 1.1595170000 -0.3703170000
O 4.4322700000 9.1491600000 7.2837000000 -0.1038600000 0.7984640000 -0.2995570000
O 3.7957500000 9.1795400000 9.9922300000 1.3345730000 0.2872150000 0.0722870000
O 10.7330000000 1.6550400000 7.1624300000 -0.8961250000 -0.3225900000 -0.0129600000
O -2.3587800000 1.5059300000 9.9738700000 -0.6485930000 0.4567090000 -0.3678780000
O 8.3582100000 9.2333000000 8.2795000000 -0.2041950000 -0.0472480000 0.1325130000
O 0.0509400000 0.0357500000 8.9536800000 -0.9960400000 -0.5458070000 -0.7420170000
O 2.1460200000 1.5001000000 8.1259900000 -0.2484710000 0.5309120000 -0.4799570000
O 6.2929800000 1.4281200000 8.9723400000 -1.0540360000 0.3830120000 0.3008560000
O 1.8085500000 3.1795100000 0.6555500000 0.3854630000 -0.2464940000 -0.3363330000
O 9.2153500000 3.2278000000 5.1192300000 -0.3082920000 -1.2517580000 1.2546660000
O 8.1334300000 4.6322400000 0.5695900000 -0.5072500000 -0.1871370000 0.4696500000
O 3.0712800000 4.6967500000 5.1745400000 -0.2925420000 -0.2701520000 -1.1840130000
O 5.7482500000 2.9994900000 1.5089900000 0.2073990000 1.5977660000 -0.1170930000
O 5.3369600000 3.0952600000 4.2041000000 0.0852340000 1.2108540000 0.2492520000
O 11.9873500000 4.6833900000 1.4283300000 0.8630760000 0.4706750000 0.4798350000
O 11.3996800000 4.7244500000 4.2278200000 1.0057130000 -0.4116750000 0.3074300000
O 9.6796600000 3.1529300000 2.4783700000 -0.0989520000 -0.1065880000 -0.0255140000
O 1.3511300000 3.1678900000 3.2998100000 0.1046580000 -0.2801610000 0.2393930000
O 3.4325600000 4.6219200000 2.5367400000 0.0875760000 0.3171270000 -0.0372830000
O 7.6281300000 4.7217400000 3.1846200000 -0.3850980000 0.0145050000 0.3232440000
O 0.4919000000 3.0788600000 6.2237600000 0.4438400000 -0.2623360000 1.5283560000
O 7.8586100000 3.0227200000 10.8817000000 -0.1235200000 0.0181240000 -1.0201360000
O 6.7679100000 4.6327600000 6.4173400000 -0.3012990000 -0.0471350000 -0.8245960000
O 1.6027500000 4.5174600000 10.8734000000 -0.1337210000 0.2434690000 -1.6851280000
O 4.5343000000 3.0150000000 7.0204900000 -0.3469800000 0.1486300000 0.6617400000
O 3.8340100000 3.0055700000 9.8420800000 1.0172520000 0.2610720000 -0.0623600000
O 10.6925000000 4.7604300000 7.2270100000 -0.0621770000 -0.7391610000 -0.1874150000
O -2.3751900000 4.5283100000 9.8804600000 0.0399950000 0.2382900000 0.1064500000
O 8.2330600000 3.0160900000 8.1828400000 0.9944550000 0.3547920000 0.5729840000
O 0.0115500000 2.9463200000 8.8559500000 0.3876780000 0.9426860000 0.3950080000
O 2.0724200000 4.6647800000 8.0594000000 -0.4767330000 -0.5936000000 1.2904470000
O 6.2636600000 4.5365400000 9.0239800000 -0.5933190000 0.1037810000 -0.3532560000
120
lattice="12.4857782130 0.0000000000 0.0000000000 0.0000000000 9.2759407870 0.0000000000 -2.7873528650 0.0000000000 11.4487550590" Properties=species:S:1:pos:R:3:force:R:3 energy=-731.5052126000 virial="-22.5234908116 -4.9081590343 1.3379839258 -4.9081590343 -23.2950474729 -1.4546923400 1.3379839258 -1.4546923400 -16.7103077641"
Ga 0.0510800000 6.1988900000 4.4694800000 0.4929520000 -0.5228990000 1.8485600000
Ga 11.1776000000 6.2250800000 1.1790100000 -0.5953200000 1.6247080000 -0.8046540000
Ga 6.1979900000 7.6402700000 4.5933200000 0.8688810000 0.5228010000 -1.8097120000
Ga 4.8629500000 7.6937700000 1.2792400000 1.0097220000 -0.8062370000 -0.5858420000
Ga 3.3226500000 6.1720100000 3.9911700000 -0.3079510000 -0.6488670000 -0.7915910000
Ga 7.7508800000 6.1665000000 1.8474500000 -0.1062380000 0.5660470000 0.1339270000
Ga 9.6621300000 7.7833300000 3.8775100000 -0.6849290000 -0.1708560000 0.0801700000
Ga 1.5494800000 7.8241000000 1.7110700000 0.0147400000 0.2317530000 1.0070950000
Ga -1.3657800000 6.2552900000 10.3230000000 0.1126350000 0.5142160000 -0.8973370000
Ga 9.6543700000 6.1388900000 6.7748100000 0.5140960000 0.3572090000 1.8483720000
Ga 4.7114700000 7.7138400000 10.2435000000 0.8766470000 0.5527210000 0.0328120000
Ga 3.3070400000 7.8331600000 6.8762200000 1.0915310000 -0.9069010000 0.4865910000
Ga 1.9480800000 6.1331700000 9.5926000000 -0.4257230000 -0.3250650000 0.4863170000
Ga 6.3933000000 6.1470500000 7.4424800000 -0.6007160000 0.6769630000 0.6341120000
Ga 8.1567800000 7.7664200000 9.5720300000 -0.5400410000 0.3081900000 0.5616070000
Ga 0.0999900000 7.6512300000 7.5711400000 0.2126450000 -0.4140580000 -0.3017930000
Ga 0.1814000000 9.2253900000 4.5381900000 -0.8509070000 0.5765110000 0.4949600000
Ga 10.8834000000 0.0084000000 1.1795200000 0.4828780000 0.4787500000 0.4981540000
Ga 6.2279000000 1.5082400000 4.5271400000 0.3635660000 -0.1210340000 -0.5219020000
Ga 4.8539000000 1.5351100000 1.0525300000 -0.5856520000 0.9328030000 2.0468650000
Ga 3.2077000000 0.0560500000 4.0027700000 1.4916090000 -0.5850120000 -1.2230050000
Ga 7.6880100000 0.0354000000 1.8112200000 0.8646660000 -1.1407270000 -0.0097990000
Ga 9.5757900000 1.5455700000 3.9257500000 0.0682240000 0.1704470000 0.3602480000
Ga 1.5102200000 1.5263900000 1.6687100000 -0.4384550000 1.0101700000 -0.0977010000
Ga -1.3790300000 0.0334900000 10.2364000000 -1.1502450000 1.1731470000 -0.6326350000
Ga 9.6374900000 9.2465800000 6.8885200000 0.2864050000 -0.3914680000 0.4257430000
Ga 4.8899200000 1.5683500000 10.2956000000 -0.5974670000 0.0011300000 -0.6926420000
Ga 3.4954600000 1.5639300000 6.9330400000 -0.0180090000 0.4406350000 0.3489550000
Ga 1.8955800000 9.1932700000 9.7751300000 -0.2398040000 -0.2158470000 -0.3919810000
Ga 6.3348000000 9.2756800000 7.4955000000 1.5818710000 0.2591000000 0.7613630000
Ga 8.1762200000 1.5934900000 9.8459000000 -0.6839360000 0.2270160000 -1.4818540000
Ga 0.1751500000 1.4819200000 7.5573600000 0.4378340000 -0.0035030000 -0.8705740000
Ga 0.0439500000 3.0867400000 4.4208600000 0.5445160000 -1.0260010000 1.4920440000
Ga 10.9756000000 3.1414500000 1.2519400000 0.8585810000 -0.2677060000 -0.1981320000
Ga 6.1051900000 4.5428100000 4.4788100000 1.2128420000 0.9713020000 -0.1808730000
Ga 4.7580100000 4.5189200000 1.0915900000 0.6472360000 1.2405450000 -0.1291360000
Ga 3.2304100000 3.0552400000 3.8671000000 0.5802490000 0.2012620000 0.0170540000
Ga 7.7922900000 3.0339100000 1.7038100000 -0.0294370000 1.0251480000 1.1663230000
Ga 9.6553200000 4.6643400000 3.9198000000 -1.3547200000 -0.0509320000 -0.0467680000
Ga 1.5632500000 4.6839400000 1.7403800000 0.2559900000 -0.7308090000 0.8504980000
Ga -1.3713000000 3.2370400000 10.2466000000 0.4528760000 -2.2720260000 -1.3240770000
Ga 9.7391400000 2.9691700000 6.8187600000 -0.3274320000 0.1838620000 1.8003700000
Ga 4.9966200000 4.7110700000 10.3326000000 -0.3759440000 -1.1546990000 -0.1919360000
Ga 3.3178900000 4.6497500000 6.8981700000 0.4977990000 0.3300460000 -0.6723610000
Ga 1.9767000000 3.0410900000 9.6326200000 -0.5075480000 0.0271040000 -0.7885270000
Ga 6.4353900000 3.1148300000 7.5088800000 -0.0797330000 0.2732550000 -0.2105510000
Ga 8.2175500000 4.6589900000 9.6503500000 -0.5823090000 0.2774390000 -0.0296570000
Ga 0.0827900000 4.5731900000 7.5893200000 0.0019440000 0.2281430000 -1.6137960000
O 1.7625600000 6.2460100000 0.7114100000 0.4356350000 0.2462650000 -1.2287370000
O 9.2066000000 6.2967900000 5.0281700000 0.0922560000 -0.7610360000 -0.4800490000
O 8.0202000000 7.7686600000 0.5639400000 0.0225820000 -0.1781130000 0.4722560000
O 2.9468300000 7.7044900000 5.0345200000 -0.4881790000 1.1180990000 1.2923500000
O 5.8320700000 6.0437600000 1.6272400000 -1.1935180000 0.7391450000 -1.0326620000
O 5.1905900000 6.1662200000 4.3517900000 -0.3890450000 -0.8784710000 -0.3661960000
O 12.0570000000 7.9462400000 1.5498200000 0.4640990000 -2.4525270000 0.0384730000
O -0.9010700000 7.7513900000 4.3334200000 -0.7786610000 -0.1664370000 -0.5499950000
O 9.7419300000 6.2874300000 2.4382600000 0.1472810000 -0.8967160000 0.6487040000
O 1.4577600000 6.1953300000 3.2839900000 -0.2080330000 0.2778550000 -0.8838400000
O 3.5218800000 7.8601100000 2.5023400000 -1.0254540000 -0.2573470000 0.2625350000
O 7.5180100000 7.6963300000 3.1587000000 -0.0811010000 0.0149200000 0.7316030000
O 0.4877800000 6.1380400000 6.3679700000 -0.1661820000 -0.3571040000 -0.6787690000
O 7.7621300000 6.3179800000 10.8193000000 0.5931690000 -0.8938040000 0.5876220000
O 6.6479700000 7.7377200000 6.3052400000 1.0936900000 -0.0824080000 1.8726520000
O 1.5271200000 7.5609500000 10.9252000000 0.4093350000 0.6294850000 -0.3314790000
O 4.3791300000 6.2154200000 7.1242000000 -0.8741900000 0.1983050000 0.1354150000
O 3.8390100000 6.0886500000 10.0422000000 -0.4180320000 0.6859520000 -0.3301690000
O 10.7297000000 7.6989400000 7.1975300000 -1.9529260000 -0.1261550000 -0.2909800000
O -2.3937200000 7.8226700000 10.0326000000 0.0491820000 -1.4149520000 -0.2451690000
O 8.3953400000 6.1949900000 8.2876700000 -0.3877350000 0.2401400000 -1.2613900000
O 0.0071800000 6.0917600000 8.9015300000 -1.1932030000 0.6380960000 1.3994220000
O 1.9865500000 7.7400900000 8.2908200000 1.2947990000 -0.2918770000 -0.4725690000
O 6.1084000000 7.7037800000 8.9541700000 0.8804240000 0.0068570000 -0.5596800000
O 1.8748500000 0.0091200000 0.5085000000 0.5715340000 0.4886670000 1.6270670000
O 9.1757700000 0.0867800000 5.0731000000 0.1905760000 -0.9122130000 0.5490950000
O 8.2863100000 1.5586900000 0.5763600000 -0.2445510000 -0.1691330000 0.5070300000
O 3.0979100000 1.5391200000 5.1511800000 -1.1874150000 -0.0763010000 -0.6781660000
O 5.8937500000 0.0534600000 1.2187200000 -0.9254130000 -0.8022020000 0.5541710000
O 5.2730900000 9.1955000000 4.3407800000 -0.6094840000 1.1440570000 -0.6935450000
O 11.9119500000 1.5377900000 1.4422100000 1.0626100000 0.7885240000 0.3408900000
O -0.8739200000 1.4716400000 4.2793100000 -0.8028840000 0.2645090000 -0.1938860000
O 9.5927200000 9.1368400000 2.5155600000 0.6113830000 1.0955850000 -0.3503030000
O 1.4029000000 0.1383000000 3.1179100000 -0.1405060000 -1.0651440000 0.9380290000
O 3.3697300000 1.5687300000 2.4904500000 1.5510110000 0.0954770000 -1.0103610000
O 7.6752900000 1.5156600000 3.1421800000 -1.2608460000 0.0476390000 0.8014120000
O 0.4909800000 9.0781700000 6.3783700000 0.6295510000 1.5699280000 -0.2024230000
O 7.8951600000 0.0762200000 10.8635000000 -0.7964070000 -1.2978020000 -1.0491790000
O 6.8339000000 1.7049700000 6.2511700000 -0.1824170000 -1.1630290000 1.1592440000
O 1.5248700000 1.5309300000 10.7853000000 -0.2233490000 0.0808820000 -0.3010280000
O 4.5331500000 0.0553300000 7.1715900000 -2.1600390000 -0.7193050000 -0.4377050000
O 3.8160800000 0.0553200000 9.8562600000 0.1184030000 -0.2921140000 0.4528510000
O -1.7316800000 1.4227100000 7.2509800000 -0.8882200000 0.5311020000 -0.2171090000
O -2.4382800000 1.6025000000 10.0325000000 1.8082150000 0.6877270000 -0.0367950000
O 8.2659700000 0.0910600000 8.2597200000 0.3617360000 -0.9737620000 -0.9332120000
O 0.0307100000 9.1880300000 9.1024500000 0.2592500000 0.3805410000 -1.3496340000
O 2.0833800000 1.4727700000 8.1564900000 -0.1695040000 0.3008650000 0.5219270000
O 6.2473500000 1.4691900000 9.0323500000 -0.0414630000 0.7887830000 -0.7602510000
O 1.9777300000 3.1822500000 0.5019200000 0.0498150000 -0.5564130000 1.5406720000
O 9.1911500000 3.1517200000 5.1232100000 0.2491600000 -0.4419720000 -1.0372250000
O 8.2008600000 4.6956100000 0.6855800000 0.2925750000 -0.8594410000 -0.4306240000
O 2.8532100000 4.5449500000 5.0369900000 0.1891170000 0.5726340000 0.8064820000
O 5.8697800000 3.0857600000 1.5760600000 -1.3148900000 -0.9411170000 -0.8078900000
O 5.1580100000 3.0268400000 4.4102800000 -0.4875640000 -0.5787490000 -0.9388230000
O 12.1096000000 4.6771700000 1.4106600000 -0.4497990000 -0.6861990000 0.3472690000
O -0.8943200000 4.6107700000 4.1864800000 -1.1222970000 1.0479170000 -0.2107390000
O 9.6916600000 3.0225000000 2.6409700000 0.6280770000 0.9963550000 -1.2271300000
O 1.3591200000 3.1027800000 3.0617300000 -0.1028250000 0.0076850000 0.4113270000
O 3.5053900000 4.7176300000 2.4911100000 -0.5382190000 -0.6422130000 -0.3942060000
O 7.5112800000 4.5179200000 3.1965100000 1.1234150000 0.5983720000 0.2771290000
O 0.4089900000 3.0583300000 6.3162700000 0.0739400000 -0.1348260000 -0.6349470000
O 7.7694400000 3.1194700000 10.8997000000 -0.1311840000 1.0275360000 -0.2122740000
O 6.7137700000 4.7113200000 6.2362100000 0.2249470000 -0.5150900000 1.0064320000
O 1.4372700000 4.5499600000 10.6898000000 0.3284740000 0.4257190000 2.0459490000