120
lattice="12.4857782130 0.0000000000 0.0000000000 0.0000000000 9.2759407870 0.0000000000 -2.7873528650 0.0000000000 11.4487550590" Properties=species:S:1:pos:R:3:force:R:3 energy=-726.4173112700 virial="-3.6758846940 -4.3535002682 4.7625342112 -4.3535002682 -15.3206401022 -1.7681962003 4.7625342112 -1.7681962003 3.8942474445"
Ga 0.0298500000 6.2519500000 4.5171200000 1.6974670000 -2.3541880000 2.2556900000
Ga 11.1841000000 6.3038800000 1.1562500000 -1.0348060000 -0.1492650000 -0.2769280000
Ga 6.1719800000 7.7244900000 4.5159900000 0.6251000000 -0.6209260000 0.0262000000
Ga 4.7405700000 7.7482800000 1.2078900000 1.2496000000 -1.4424280000 -1.7090910000
Ga 3.4225000000 6.1676800000 3.8520000000 -0.8967780000 0.7235560000 1.5137000000
Ga 7.6420700000 6.0502300000 1.7607700000 0.2403010000 1.5881550000 0.2436770000
Ga 9.4779600000 7.8047300000 3.8222900000 0.8072050000 -0.7785600000 -0.8873640000
Ga 1.4916900000 7.7743100000 1.9888800000 -0.2449650000 1.0766350000 -1.5197910000
Ga -1.3730700000 6.0953700000 10.2145000000 0.2714720000 1.6026280000 0.3942300000
Ga 9.5793700000 6.0659400000 6.7306700000 1.7250440000 1.8280960000 -1.6834920000
Ga 4.8801200000 7.6817900000 10.2685000000 -0.2630260000 -1.1682860000 -0.7535510000
Ga 3.3684900000 7.6205200000 6.9775900000 0.3109260000 1.6254280000 -1.4974090000
Ga 1.9661200000 6.1808600000 9.5365200000 0.2929150000 0.7350730000 1.6258400000
Ga 6.5284900000 6.1459300000 7.4276600000 -0.3364210000 -0.3891960000 -0.1050250000
Ga 8.2459700000 7.5712800000 9.5761300000 -2.1368040000 0.9857060000 0.1615580000
Ga -0.0307000000 7.8438400000 7.5361900000 0.8563680000 -0.7486690000 0.2602470000
Ga 0.0090800000 9.1525700000 4.5391600000 -0.0727430000 1.5407000000 -1.5663660000
Ga 11.0141000000 0.2507100000 1.0351000000 1.0406720000 -1.6039270000 1.6025400000
Ga 6.2372200000 1.5669400000 4.5613200000 0.4703110000 -1.0315250000 -0.9760520000
Ga 4.8003400000 1.4058200000 1.1348900000 1.4275520000 1.6695190000 0.0541210000
Ga 3.4386600000 0.0026800000 3.9611900000 -1.8442960000 0.4847740000 -0.4489080000
Ga 7.7142300000 9.1106800000 1.7012800000 1.3314140000 1.5414190000 0.3832290000
Ga 9.6296300000 1.5701300000 3.9755700000 -0.1165730000 -0.4246220000 -1.2311730000
Ga 1.6185100000 1.6763500000 1.8064900000 -0.8898470000 -1.3656820000 0.3615560000
Ga -1.3648900000 9.1061600000 10.5209000000 -1.7699560000 0.9189340000 -3.5080370000
Ga 9.6176500000 9.1897600000 6.8531200000 -0.4871430000 1.8331270000 0.4566730000
Ga 4.6815100000 1.5216400000 10.2566000000 0.7696650000 0.1070390000 -2.1776000000
Ga 3.3971100000 1.6234600000 6.7758800000 1.1636220000 -1.9012890000 1.5326520000
Ga 1.7901200000 0.0875000000 9.6831800000 1.0586030000 -1.2210700000 0.1010930000
Ga 6.3300500000 9.1807000000 7.6080900000 -0.5805900000 -0.0049970000 -0.5505980000
Ga 8.2865800000 1.4792600000 9.7494400000 0.4840790000 0.5169320000 -0.4104260000
Ga 0.1220500000 1.6634400000 7.4332400000 -1.0114170000 0.3187840000 0.2415110000
Ga -0.0405600000 3.1642100000 4.5772500000 -0.0080150000 0.2107440000 0.4198350000
Ga 11.1020000000 3.2514200000 1.2706900000 -0.0239510000 -1.8623840000 0.2408400000
Ga 6.3758600000 4.4984900000 4.5124900000 -0.5185630000 1.2225080000 0.2115120000
Ga 4.6697300000 4.5477100000 1.2047000000 -0.0016380000 1.8309790000 -1.3222000000
Ga 3.2833300000 3.2247200000 3.9856100000 -0.5798440000 -0.2947460000 0.4412050000
Ga 7.5649600000 3.1228400000 1.7503700000 1.3370290000 -1.7582230000 -0.4261430000
Ga 9.6370600000 4.6612300000 3.6938500000 0.0581450000 0.0480880000 0.7057760000
Ga 1.4275600000 4.7904600000 1.8793600000 1.7548530000 -0.2483760000 0.0734210000
Ga -1.3470000000 3.2502700000 10.4925000000 -0.7691930000 -2.1843990000 -3.9002330000
Ga 9.5285600000 3.1174400000 6.8370900000 1.3430860000 -0.8977740000 1.2885420000
Ga 5.0595800000 4.6011400000 10.2614000000 0.5541410000 -1.6606600000 0.4968720000
Ga 3.6828300000 4.6509200000 6.9451400000 -1.1989630000 1.5893140000 0.5396360000
Ga 2.0199600000 3.2118400000 9.5418200000 -1.3949470000 0.2645720000 0.7749410000
Ga 6.3871800000 2.8441500000 7.6168000000 0.8919070000 1.4808970000 -0.4802590000
Ga 8.1348400000 4.5517200000 9.7282300000 2.0298840000 -0.0926030000 1.2076320000
Ga 0.0930500000 4.7502800000 7.5932800000 -0.0982750000 -0.2134300000 -0.6721240000
O 1.9121000000 6.2759000000 0.6286700000 -0.3304140000 -0.5407660000 -0.3468790000
O 9.2153100000 6.2538000000 4.8546100000 -0.2081050000 -1.2374330000 1.8637440000
O 7.9964300000 7.5727900000 0.6238300000 0.3183150000 0.4151190000 -0.2591040000
O 3.1057000000 7.7864600000 5.0718700000 -0.8067850000 -1.2893350000 0.2873390000
O 5.7394000000 6.0832200000 1.3651500000 -0.3168950000 0.9004170000 0.9049700000
O 5.2466300000 6.0987300000 4.2526500000 1.6037780000 -0.4479550000 -0.1134280000
O 12.0898200000 7.8399300000 1.3969800000 0.2086440000 0.7283810000 -0.0286670000
O -0.9307800000 7.6036400000 4.1299700000 -1.8199150000 3.4774510000 -0.6554020000
O 9.7633600000 6.0444600000 2.3428400000 -0.3513820000 0.7295220000 0.2226400000
O 1.4745000000 6.3037300000 3.2595900000 -0.5221820000 -0.5976830000 0.3293070000
O 3.4712100000 7.8133900000 2.5090500000 -0.0591200000 -0.4320090000 0.4495740000
O 7.6056700000 7.7294200000 3.2070500000 -0.7514780000 -0.4751910000 -0.2335320000
O 0.3722100000 6.2669300000 6.3984200000 0.3626430000 0.4351550000 -1.3437770000
O 7.7222900000 6.1452400000 10.8759000000 0.4464000000 0.3024720000 -1.1441910000
O 6.7591900000 7.6378200000 6.2526800000 0.7211000000 0.5529030000 0.3733910000
O 1.6222600000 7.6502600000 10.7912000000 0.0400030000 1.0458210000 0.7965890000
O 4.5836900000 6.2855800000 7.0502900000 0.3629440000 -2.2132680000 0.6074120000
O 4.0082800000 5.9538200000 9.9735300000 -1.0436640000 3.2414510000 -0.8027780000
O 10.6263000000 7.7390300000 7.0741300000 -0.5273070000 -1.2960040000 -0.1969670000
O 10.0236000000 7.6203700000 9.8263600000 2.6915830000 0.6841260000 1.2966970000
O 8.4408300000 6.2319700000 8.0916100000 -2.2216980000 -0.4392640000 0.9319890000
O -0.0689100000 6.2249200000 8.8233400000 -0.4553220000 0.1715160000 1.8732080000
O 2.1409200000 7.7145400000 8.2899500000 -1.2655300000 0.2418070000 0.0886230000
O 6.2167300000 7.5909200000 8.8315000000 0.4601710000 0.2711660000 1.0896780000
O 1.8291700000 9.2665800000 0.7158300000 1.1909590000 0.2525740000 2.0260750000
O 9.2342800000 9.2661000000 4.9618900000 -0.1236040000 0.5039440000 1.3758900000
O 8.0372000000 1.4419500000 0.4453000000 0.5157920000 0.6134500000 3.2949300000
O 2.8863200000 1.6116800000 5.0296400000 0.1025760000 0.0860880000 -0.5032300000
O 5.8593300000 9.2435400000 1.5242500000 -1.6011560000 -0.7565890000 -0.3738260000
O 5.2193600000 0.0035400000 4.3899800000 0.8428950000 0.3639580000 -0.7536450000
O -0.3361500000 1.6257800000 1.5514900000 -0.7309360000 0.8510120000 -0.2701440000
O -0.9432800000 1.5569200000 4.4568400000 -0.1817010000 -0.3791910000 -0.6568660000
O 9.7388800000 9.1879000000 2.3492000000 -0.8081040000 0.4117990000 0.6958760000
O 1.3529400000 0.1240100000 3.1417400000 -0.0056940000 -0.5756780000 1.8211770000
O 3.4964100000 1.5080300000 2.3532300000 -0.9922420000 0.4021400000 1.7799230000
O 7.4575300000 1.4286500000 3.0962800000 0.6491460000 1.1598650000 0.4526670000
O 0.3829700000 0.0242400000 6.2844300000 0.6269260000 0.1673260000 2.1217310000
O 7.6909100000 9.2501800000 10.8029000000 0.2182740000 0.0116960000 -0.8526590000
O 6.5052200000 1.4130100000 6.3397800000 1.3137920000 0.2027750000 0.1821390000
O 1.7288400000 1.6950800000 10.8431000000 -0.6036800000 -1.1761480000 -1.6142990000
O 4.3828900000 9.1580600000 7.0865400000 -0.1272970000 1.8859370000 0.2849860000
O 3.9129400000 9.2053300000 9.9221100000 -1.2776810000 -0.5848570000 -0.1922270000
O 10.5735000000 1.5030100000 7.2638600000 0.3090120000 0.5867150000 -0.7361640000
O -2.2084800000 1.5514100000 10.0570000000 -0.6426830000 -0.2249010000 0.8462840000
O 8.3023200000 0.0764300000 8.3133500000 0.0216870000 -1.2533230000 -1.3520870000
O -0.0734900000 9.1743200000 9.1868300000 0.6164330000 -0.0513290000 -1.6931950000
O 2.0567300000 1.4558200000 8.1930000000 -0.4008780000 1.1150650000 -0.6307580000
O 6.1046900000 1.5040400000 8.8399600000 -0.1533840000 -0.9779380000 2.0350480000
O 1.8761500000 3.2066000000 0.7182000000 0.9057090000 0.5149600000 1.6075430000
O 9.1840500000 3.0753400000 4.9992200000 -0.2751360000 0.8270620000 0.9896460000
O 8.1762000000 4.6817400000 0.6645900000 -0.0507410000 -2.2788160000 -1.1482010000
O 2.9669400000 4.6437100000 5.2881600000 -0.0793360000 0.2488630000 -2.0407210000
O 5.7306000000 3.1452400000 1.2868000000 0.8717660000 -2.1502380000 0.9379240000
O 5.2215200000 3.0737500000 4.2571600000 -0.1054000000 0.2657700000 -0.4780620000
O -0.3228800000 4.7064100000 1.4026800000 -0.9946770000 0.9594770000 0.0150940000
O -0.9833500000 4.7595600000 4.2483900000 -0.1604080000 -1.3882840000 -0.3134410000
O 9.7401000000 2.9651900000 2.5185500000 -0.0289150000 0.5366160000 -0.0444170000
O 1.3059700000 3.3615200000 3.3069000000 0.9052030000 -1.0651920000 -0.3399710000
O 3.4069200000 4.6304900000 2.5575400000 0.0075890000 0.1961040000 0.1532900000
O 7.7044000000 4.5664400000 3.1486600000 -1.3761400000 0.0196820000 0.6709990000
O 0.4388000000 3.3220100000 6.3781200000 0.2620140000 -1.6776770000 -0.1032130000
O 7.7803000000 3.1428500000 11.0038000000 0.1134590000 -0.9539720000 -1.0310670000
O 6.7925200000 4.3552900000 6.3142900000 0.4073540000 1.2953560000 0.6414620000
O 1.6312300000 4.7024500000 10.8238000000 -0.8458000000 -0.4479870000 -0.9122390000
O 4.5303000000 3.1097900000 7.2048900000 -1.0206400000 -1.1919780000 -0.0748040000
O 3.8682800000 3.1142800000 9.8575300000 0.9992020000 0.6416600000 0.1075130000
O 10.6324000000 4.6690700000 7.1758700000 -0.7486030000 -1.2669840000 -0.4407500000
O 10.0301800000 4.6639300000 9.8941100000 0.9220020000 -0.6287960000 0.7100730000
O 8.4315100000 2.9463800000 8.4320000000 -0.3914450000 0.3709110000 -1.6665020000
O -0.0636900000 3.1510900000 8.9786200000 0.7817210000 0.2508030000 0.1667470000
O 2.0775500000 4.8666100000 8.1916400000 1.0197620000 -2.0545540000 -0.8289620000
O 6.5205800000 4.4486000000 9.0172300000 -3.9253830000 0.7880440000 -1.3679660000
120
lattice="12.4857782130 0.0000000000 0.0000000000 0.0000000000 9.2759407870 0.0000000000 -2.7873528650 0.0000000000 11.4487550590" Properties=species:S:1:pos:R:3:force:R:3 energy=-727.1849615400 virial="-2.8393861148 10.7104922214 -5.7049492763 10.7104922214 -8.1391497968 -0.1698983857 -5.7049492763 -0.1698983857 -3.3270422343"
Ga 0.1880700000 6.2272600000 4.4973000000 -2.1037180000 -0.0762900000 0.0156330000
Ga 11.1389000000 6.2959400000 1.1856000000 0.5811190000 0.7253120000 -1.2917760000
Ga 6.1628200000 7.6880700000 4.5313800000 0.4281000000 -0.8892850000 0.4382280000
Ga 4.7755900000 7.7610500000 1.2273100000 -1.1585900000 -2.5306380000 -1.3356330000
Ga 3.3732900000 6.1889300000 3.8480100000 0.0819330000 -0.8037050000 1.7740440000
Ga 7.6410100000 6.0572900000 1.7739400000 0.1089820000 0.4110970000 -0.8407640000
Ga 9.4126300000 7.8193900000 3.8640700000 1.2706030000 -1.2203920000 1.1697110000
Ga 1.5257300000 7.8605500000 1.9785700000 -1.1784110000 0.2163810000 -1.4324390000
Ga -1.3591200000 6.0843500000 10.2678000000 -0.1491520000 1.5782850000 -0.4468530000
Ga 9.6398300000 6.0752100000 6.7818300000 0.6622980000 -0.0055120000 0.3764590000
Ga 4.8828000000 7.6859800000 10.2093000000 0.7118810000 -0.3478160000 0.2984710000
Ga 3.3240800000 7.6510100000 6.9655300000 1.1906850000 1.0056690000 -0.5824240000
Ga 2.0293500000 6.2677900000 9.5835200000 -0.2731550000 -0.6978410000 1.0320900000
Ga 6.4852100000 6.1167500000 7.3835900000 0.0786530000 -0.8198990000 -0.0675430000
Ga 8.1959400000 7.5830000000 9.5226200000 -0.0224320000 1.1617020000 0.6476240000
Ga 0.0340500000 7.8741700000 7.5522800000 -0.2485540000 -0.8168980000 0.1161300000
Ga 0.0080100000 9.1787700000 4.5095300000 0.3995800000 2.9317000000 1.9659100000
Ga 11.0010000000 0.2006700000 1.1420900000 0.7660910000 -0.7290730000 -0.2829360000
Ga 6.3478000000 1.4505000000 4.5404100000 -1.4430220000 1.4031110000 0.8329310000
Ga 4.8526700000 1.4303500000 1.1142800000 -0.8514530000 1.5911930000 1.0915730000
Ga 3.3516000000 9.2588400000 3.9561500000 -0.3591170000 1.0327220000 0.6007040000
Ga 7.7761400000 9.0949300000 1.7326400000 -0.1087560000 1.5336250000 -0.2435580000
Ga 9.7014600000 1.6040700000 3.9715200000 -1.0894960000 -0.8134780000 -0.0083390000
Ga 1.6264200000 1.6087100000 1.7080400000 -0.3318060000 0.0265260000 1.1390650000
Ga -1.3606900000 9.1020100000 10.3875000000 0.2153420000 2.0463580000 -0.3382230000
Ga 9.6222200000 9.2583500000 6.8771700000 0.3037360000 -1.3076780000 0.1603660000
Ga 4.5977800000 1.5826600000 10.2554000000 0.9744320000 -0.0730480000 0.8317200000
Ga 3.4640200000 1.5697500000 6.7955200000 -1.2856690000 -0.2897300000 0.1451990000
Ga 1.8026600000 0.0314100000 9.6307900000 1.3555570000 -0.0912170000 0.4435170000
Ga 6.3018300000 9.2309200000 7.7283300000 -0.4813560000 0.2955950000 -1.2450310000
Ga 8.3110600000 1.5327000000 9.7443400000 0.0000900000 -0.3296440000 -0.0454250000
Ga 0.1324300000 1.6240300000 7.3694900000 -0.7494250000 0.3092790000 0.3440730000
Ga -0.0638900000 3.1932200000 4.5155600000 0.7916950000 -0.9898880000 0.5035740000
Ga 11.0155000000 3.1680600000 1.2646100000 1.2110920000 0.3744670000 -0.2182300000
Ga 6.3438100000 4.5785200000 4.5326500000 -1.2891900000 -1.4218930000 1.7963650000
Ga 4.6366700000 4.5852400000 1.1797100000 0.9301640000 -0.1082580000 -0.6275400000
Ga 3.2657700000 3.2467100000 3.9952600000 0.3426720000 -1.7634010000 0.7060660000
Ga 7.5727300000 3.1110700000 1.7833900000 1.3916690000 -2.3514560000 0.3822510000
Ga 9.6241000000 4.6642100000 3.6278300000 -0.0285860000 -0.1288100000 2.5778320000
Ga 1.4279600000 4.8047600000 1.8298800000 0.0754940000 -1.2973320000 -0.0752050000
Ga -1.3896600000 3.2708500000 10.4125000000 0.9870970000 -2.5543280000 -0.6173150000
Ga 9.5862000000 2.9950200000 6.9147700000 0.8230980000 -0.6367320000 -1.3937090000
Ga 5.0457700000 4.5847100000 10.1874000000 -2.1715290000 0.7779050000 2.2497130000
Ga 3.6722500000 4.7118500000 6.9939300000 -1.0150390000 -2.0235110000 -0.0756930000
Ga 1.8781300000 3.1634600000 9.5753000000 -0.1151570000 1.2003030000 -0.1612710000
Ga 6.3788000000 2.8318300000 7.6381300000 -0.3789800000 1.0828840000 -0.9002130000
Ga 8.1167300000 4.5754700000 9.7648700000 0.2072310000 -0.3010000000 -0.9128950000
Ga 0.1446200000 4.7713200000 7.5320500000 -0.2384560000 -0.3116420000 -0.1812770000
O 1.7028600000 6.2256900000 0.5678300000 0.7664630000 0.4669260000 1.8685360000
O 9.3563300000 6.1754000000 5.0059400000 -0.6445460000 0.0610430000 -1.8120200000
O 8.0958100000 7.5496800000 0.5654600000 0.1532950000 0.6307090000 0.7977860000
O 2.9604400000 7.6130100000 5.1256900000 -0.0020790000 0.4478540000 -0.2286820000
O 5.7104900000 6.1281900000 1.2143600000 0.5117900000 0.1552910000 1.5600370000
O 5.2681100000 6.0398300000 4.2771900000 -0.2668910000 1.3680660000 -0.5442220000
O 12.0491000000 7.9554400000 1.5189300000 0.2598910000 -1.1355730000 -0.6288880000
O -0.9055000000 7.7716600000 4.0964900000 -1.0458450000 -2.4626700000 -0.0419720000
O 9.7612200000 5.9591100000 2.2894100000 -1.7805890000 1.3358800000 0.6042620000
O 1.4573700000 6.2258700000 3.1312400000 -0.7825770000 0.6687110000 1.0889320000
O 3.3530800000 7.7082800000 2.5677800000 1.9961340000 0.3749630000 -0.5988930000
O 7.5600200000 7.5644300000 3.1889700000 0.2343660000 0.4919770000 -0.4847840000
O 0.5129000000 6.3923100000 6.2792700000 0.0062590000 -1.0547240000 1.3837510000
O 7.7458300000 6.0935200000 10.7949000000 0.2463510000 1.4215220000 0.2961710000
O 6.8808700000 7.4920000000 6.1932300000 0.0616650000 1.2502850000 0.1124840000
O 1.6303100000 7.6880600000 10.8410000000 -0.3328800000 1.1296820000 0.4432500000
O 4.6228000000 6.2109300000 7.1509300000 -1.2003020000 0.9650660000 0.0272810000
O 4.0163900000 6.1538600000 9.8220300000 -0.4816740000 -1.0916250000 0.1766870000
O 10.6363000000 7.6183700000 7.1025200000 -0.2752870000 1.2886600000 0.2447460000
O -2.3439600000 7.6629000000 9.9328100000 -1.2410600000 -0.2054020000 -0.0627870000
O 8.2792700000 6.2649800000 8.0882600000 0.4992350000 -1.0120420000 0.6459560000
O -0.0736000000 6.3566900000 9.0263200000 1.3643290000 -1.0041850000 -2.0367260000
O 2.1620200000 7.8326300000 8.4032000000 -0.3239060000 -1.2590500000 -1.6803330000
O 6.1937400000 7.6783100000 8.8217500000 0.6983570000 0.0391400000 0.7721560000
O 2.0194200000 0.0167500000 0.6997900000 -0.3151150000 -0.3848210000 -0.3636080000
O 9.2854800000 0.0156700000 5.0628700000 -0.7168180000 0.0254680000 -0.1504960000
O 8.0755300000 1.5147400000 0.5882700000 -0.3527120000 -0.1800120000 0.3097970000
O 3.0730300000 1.5908600000 5.0189300000 -0.5586730000 -0.0680460000 -0.1206980000
O 5.7563400000 9.1855600000 1.4494300000 1.5119470000 0.8156190000 0.5238600000
O 5.2623300000 9.2565900000 4.3751200000 -0.9360800000 -0.9519710000 -0.8024010000
O -0.3597700000 1.6976800000 1.5810900000 -0.5765360000 -0.9846950000 -0.1926180000
O -1.0199200000 1.5345800000 4.5635100000 1.7110930000 0.1842540000 -1.0448150000
O 9.7460700000 9.2499800000 2.5247400000 -0.8526970000 0.2189120000 -0.5444780000
O 1.4036700000 0.1942900000 3.3488900000 0.2495310000 -1.1018880000 -0.9052810000
O 3.4176700000 1.4950600000 2.5018900000 1.1670490000 0.2553640000 -1.2584070000
O 7.4450800000 1.2900100000 3.1359200000 1.6760150000 1.0797240000 -0.6196540000
O 0.5119000000 0.0455600000 6.4087700000 -0.4029210000 -1.0519080000 -1.5873350000
O 7.7451500000 9.2271900000 10.7645000000 0.5666990000 0.4379560000 0.6151740000
O 6.6462000000 1.3260800000 6.3837600000 0.5107070000 0.6523340000 0.3121620000
O 1.7254100000 1.6656200000 10.7539000000 -0.2540170000 -1.2666550000 -0.1842160000
O 4.2934100000 0.0049400000 7.1081700000 1.2771680000 -1.6328690000 0.6295360000
O 3.9604300000 9.1784000000 9.9771300000 -1.9290180000 1.4267780000 -0.2278890000
O 10.6618000000 1.4510900000 7.1553300000 0.2141080000 0.7274890000 0.6435540000
O -2.2342000000 1.5893600000 10.1627000000 -0.3653370000 -0.9042930000 0.0523740000
O 8.3094100000 0.0811100000 8.2257300000 -0.2125090000 -0.7390970000 0.3355740000
O 0.0125200000 9.1898300000 9.0723200000 -1.3462030000 0.4087410000 -0.2379640000
O 1.9274600000 1.4461400000 7.9631100000 1.1579020000 0.9973750000 1.9878230000
O 6.0394500000 1.5452700000 9.0408500000 1.3836610000 -0.4105390000 -0.6158640000
O 1.8541300000 3.2270400000 0.7747500000 0.6067190000 0.1853290000 -1.3959300000
O 9.2748200000 3.1056800000 5.0414400000 -0.7604640000 0.1985210000 0.4773610000
O 8.0585500000 4.4918800000 0.6667900000 0.4058360000 1.1138310000 -1.5376100000
O 3.0033200000 4.5710800000 5.3136500000 -0.3219810000 1.2257730000 -1.4310520000
O 5.8211800000 3.0318100000 1.3308900000 -2.4916190000 0.4812120000 -0.0177830000
O 5.2676800000 3.0670000000 4.1838900000 0.9607990000 -0.4622620000 0.1792450000
O 12.0455000000 4.7125400000 1.4260500000 0.0258660000 -0.0448530000 -0.0793090000
O -0.9733100000 4.7030000000 4.0801800000 0.6685740000 0.9315030000 0.5795080000
O 9.7805500000 2.9864600000 2.5796800000 -1.1898210000 0.2576010000 -0.3040050000
O 1.4000900000 3.4329600000 3.2833900000 -0.9913020000 -1.5611240000 0.9228870000
O 3.4102000000 4.6104500000 2.6410200000 1.2474300000 1.0676950000 -1.8462600000
O 7.5421000000 4.6483000000 3.1937800000 1.5221430000 -0.4818580000 -1.0138050000
O 0.3597700000 3.2060700000 6.3776700000 0.1743180000 0.5361080000 -0.8906170000
O 7.8379000000 3.1374300000 10.9506000000 -0.3364680000 -1.1069210000 -1.0989770000
O 6.7123600000 4.3353600000 6.3826500000 0.4190750000 1.1772140000 -0.2545640000
O 1.5569400000 4.7888800000 10.7864000000 -0.3965790000 -1.2695550000 -0.0317100000
O 4.4261500000 3.0106500000 7.2330600000 0.8169420000 1.1374770000 0.3989290000
O 3.8346800000 3.2282200000 9.8659800000 -0.4733270000 -0.9030130000 0.1767980000
O 10.5531000000 4.4804700000 7.1673300000 1.1568230000 2.2833430000 0.3789300000
O -2.4316500000 4.6621600000 10.0077000000 -0.9023430000 0.0265500000 -0.5104990000
O 8.4634400000 2.9318400000 8.3406900000 -2.0280790000 0.3699210000 0.8040670000
O -0.0421200000 3.2258000000 9.0158600000 0.1381560000 -0.0340160000 0.0197720000
O 2.0974800000 4.7079700000 8.1393700000 -0.1107710000 0.4827150000 0.5240550000
O 6.2608600000 4.5284500000 8.9164900000 2.0140840000 -0.0086330000 -0.8212490000
120
lattice="12.4857782130 0.0000000000 0.0000000000 0.0000000000 9.2759407870 0.0000000000 -2.7873528650 0.0000000000 11.4487550590" Properties=species:S:1:pos:R:3:force:R:3 energy=-726.9675595600 virial="-7.5968305745 -1.9831492312 -2.3502651399 -1.9831492312 -19.1161132648 -0.7191694636 -2.3502651399 -0.7191694636 -4.4514055682"
Ga 0.2590900000 6.1881100000 4.5162000000 -2.3127310000 1.4836450000 1.0827960000
Ga 11.0606000000 6.3431300000 1.1561900000 -0.0211280000 -0.8740150000 0.8972260000
Ga 6.2072400000 7.6015900000 4.5552400000 0.3875570000 1.2700960000 -0.5992440000
Ga 4.7829900000 7.6546600000 1.2098300000 1.3179660000 1.3601990000 0.1822510000
Ga 3.3052500000 6.1874000000 3.9562800000 0.4765910000 0.6044240000 -1.4628330000
Ga 7.6702700000 6.1139700000 1.7345200000 0.1467080000 -0.5474650000 -0.5107930000
Ga 9.4383100000 7.7368100000 3.9899400000 0.4845660000 -0.2868220000 -0.4174270000
Ga 1.5070300000 7.9569900000 1.8465800000 0.5238490000 -1.8151440000 -0.4159960000
Ga -1.3318900000 6.1783100000 10.3177000000 -0.2920370000 0.0223480000 -0.2830230000
Ga 9.7526200000 6.1012000000 6.8493900000 -0.5001180000 0.4205090000 -0.0046750000
Ga 4.9337000000 7.7027800000 10.1762000000 -1.7380890000 1.1916380000 1.4143400000
Ga 3.3402700000 7.7456500000 6.8827600000 0.3650440000 -0.1979730000 0.0454720000
Ga 2.0460600000 6.3419200000 9.7212300000 -2.8692930000 -0.9740580000 -0.1114930000
Ga 6.4303900000 6.0406800000 7.3286700000 0.4234550000 1.5239850000 0.4373920000
Ga 8.1225200000 7.7060400000 9.5171900000 1.5487410000 -0.3253670000 1.6928850000
Ga 0.1353100000 7.8186300000 7.5715300000 -0.8989030000 -0.9554850000 -0.6668970000
Ga 0.0152000000 0.0509800000 4.5699400000 -1.3526480000 -2.2010050000 -2.5440900000
Ga 11.0094000000 0.0684200000 1.2754400000 0.5691270000 -0.3295180000 -0.6575700000
Ga 6.4356800000 1.3577600000 4.5493700000 -1.3536290000 0.1807680000 0.5434990000
Ga 4.8519800000 1.5159800000 1.1334200000 0.2567500000 -0.4946740000 -0.7207350000
Ga 3.2281100000 0.0276200000 3.9674100000 2.1219840000 -0.7424920000 -0.2894270000
Ga 7.8440600000 9.2161800000 1.7698800000 -0.8816520000 -0.4466790000 -0.2228210000
Ga 9.6820800000 1.5848100000 3.9582700000 -0.9234920000 0.0941480000 0.4142430000
Ga 1.6301600000 1.5334000000 1.6659800000 0.0216390000 1.5061970000 0.0770700000
Ga -1.3556600000 9.2307800000 10.1674000000 -0.5432210000 -1.1759850000 1.5714200000
Ga 9.6411500000 0.0042200000 6.9393400000 -0.2966080000 -1.0475580000 -0.5149950000
Ga 4.5581900000 1.6606300000 10.3046000000 1.1120230000 -1.0949240000 0.3375100000
Ga 3.4837800000 1.4664800000 6.8709900000 0.5215040000 0.7463040000 1.4768960000
Ga 1.9164600000 9.2309600000 9.5729300000 -1.0622710000 1.6880980000 -0.0285670000
Ga 6.2560900000 0.0375400000 7.7866800000 2.1019280000 0.1201340000 -0.7666330000
Ga 8.3147900000 1.5427600000 9.7178100000 -1.1583550000 -1.5269980000 0.3849020000
Ga 0.1474500000 1.5831200000 7.3176500000 2.0953950000 0.2747590000 0.4722040000
Ga -0.0370700000 3.1920900000 4.4612900000 0.0400370000 0.7977360000 -0.3907010000
Ga 10.9531000000 3.0562700000 1.2149000000 0.7447870000 0.3198870000 -0.2109920000
Ga 6.2393800000 4.6109300000 4.6333400000 -0.2822580000 -0.7782020000 -3.6701630000
Ga 4.6589000000 4.6428700000 1.0661000000 0.9281930000 0.2493650000 0.5654650000
Ga 3.2811800000 3.1378600000 4.0001200000 1.1378640000 0.3000480000 -0.7720580000
Ga 7.6664600000 2.9330700000 1.8527300000 -0.9764870000 1.8183680000 -0.2818290000
Ga 9.5929400000 4.6794700000 3.7420300000 -0.3200560000 0.0682910000 0.2005950000
Ga 1.4663100000 4.7155000000 1.7747600000 -0.0028360000 -0.2115680000 -0.0203550000
Ga -1.3938500000 3.1387200000 10.2301000000 -1.0075630000 0.1161910000 0.8796400000
Ga 9.6943900000 2.8505500000 6.9613100000 -0.7014580000 3.8316450000 -0.3648420000
Ga 4.9093300000 4.6033800000 10.1561000000 -1.2669120000 0.0024780000 -0.4276280000
Ga 3.5577600000 4.6797800000 7.0549500000 -0.4304730000 0.0631160000 -1.2788590000
Ga 1.6920400000 3.1459800000 9.6107800000 1.2843230000 -0.3846240000 0.1151250000
Ga 6.3643600000 2.9471500000 7.5972600000 0.0519200000 -0.0396360000 -0.6227120000
Ga 8.1070000000 4.6070400000 9.7459200000 0.1029970000 0.6513040000 -0.1454930000
Ga 0.1904700000 4.7695500000 7.4317900000 0.0052550000 -1.1517220000 0.8325340000
O 1.6736800000 6.3369200000 0.7367100000 0.7825520000 -0.9242050000 -1.5356170000
O 9.3532000000 6.0912500000 4.9608900000 -0.7761010000 0.5043020000 1.8145500000
O 8.1391800000 7.7151000000 0.5279000000 -0.0589050000 -0.2251560000 0.0293950000
O 2.8678600000 7.6235700000 5.1622400000 -0.2385270000 1.3262950000 -1.0351430000
O 5.8073600000 6.1007300000 1.4465200000 -0.8637810000 0.7204510000 -0.8519620000
O 5.2183000000 6.1570200000 4.1954100000 0.4414550000 -1.3292070000 0.4180190000
O 12.1133000000 7.8636400000 1.4687900000 -0.7242950000 -0.2490910000 0.6252950000
O 11.4021400000 7.6630300000 4.2316900000 1.8007700000 1.1559420000 0.2309390000
O 9.4858800000 6.1761300000 2.3021300000 2.5812280000 -0.1512170000 0.1963540000
O 1.4038100000 6.2501900000 3.1285300000 0.3754460000 -0.1290250000 0.7847710000
O 3.5058500000 7.7073400000 2.5323500000 -0.8948080000 0.5504710000 0.1680080000
O 7.5552300000 7.5439000000 3.1509400000 0.2443740000 1.4707610000 1.0271790000
O 0.5266100000 6.2459700000 6.3883500000 0.0692680000 0.8769110000 -1.5545140000
O 7.9186900000 6.2787400000 10.8385000000 -1.2249970000 -0.9005620000 -1.1199080000
O 6.8901700000 7.5955300000 6.2534600000 -0.2293570000 -0.1053120000 0.8225440000
O 1.5615300000 7.9130000000 10.8525000000 -0.3204380000 -2.2492520000 0.0997190000
O 4.4437900000 6.3499100000 7.2039300000 0.8328820000 -2.1746980000 0.1569750000
O 3.8323700000 6.1978100000 9.8181300000 2.1452580000 -0.0529160000 0.5103960000
O 10.6372000000 7.7651000000 7.2005900000 0.1718070000 -1.0328490000 0.0429970000
O -2.4340800000 7.6636400000 10.1032000000 1.1438670000 0.8214020000 -0.8964140000
O 8.2725700000 6.0469100000 8.2638400000 0.5478810000 0.4876570000 -1.2572550000
O 0.1320600000 6.2776900000 8.9200200000 -1.3264440000 -0.0878970000 1.2501790000
O 2.0170600000 7.7796100000 8.1685200000 0.4108260000 0.5356090000 0.6296330000
O 6.2911400000 7.8143700000 9.0097500000 -0.3993670000 -0.5232680000 -0.7633150000
O 2.0398000000 0.0180700000 0.5690500000 -0.4389560000 0.0943830000 -0.0464610000
O 9.1997000000 0.0535000000 5.1361100000 0.1152450000 0.0991710000 0.1643260000
O 8.0042200000 1.5191000000 0.6298300000 0.2161840000 0.0935510000 -0.4448370000
O 3.1333400000 1.5659500000 5.1166200000 -0.6848620000 -0.2324050000 -0.3884690000
O 5.9408800000 9.2504100000 1.4127300000 -1.4468560000 -0.2123900000 0.0892180000
O 5.1911700000 9.1427200000 4.1487700000 1.1808800000 0.8125410000 0.9245670000
O 12.0916700000 1.5652700000 1.5513600000 -0.0221050000 0.4307290000 0.0788730000
O -0.8576200000 1.5940300000 4.2006800000 -1.5758920000 -0.2098930000 -0.0399840000
O 9.6565700000 0.0461900000 2.6232200000 0.9469880000 -0.5836370000 -1.2713410000
O 1.4708100000 0.0091300000 3.3389600000 -1.2024880000 0.2218600000 -0.8444150000
O 3.5218300000 1.5693100000 2.4323300000 -1.4366700000 -0.1234600000 0.7859050000
O 7.7679900000 1.4480300000 3.2322100000 -1.2790100000 0.1870400000 0.5611270000
O 0.5159000000 9.1975700000 6.2177500000 0.7022310000 0.9235990000 2.8068970000
O 8.0514600000 9.2495100000 10.8831000000 -0.8748170000 0.3200190000 -0.5176290000
O 6.8506200000 1.4020800000 6.4456400000 -0.7349620000 -0.0306610000 -0.2719280000
O 1.5312600000 1.4653600000 10.7089000000 -0.1438500000 1.1035910000 0.7069690000
O 4.5146700000 9.1173000000 7.2975100000 -2.1694070000 1.7680380000 -0.8672070000
O 3.6872600000 0.0373300000 10.0214000000 2.6141250000 -0.8262260000 -0.3761200000
O -1.6823800000 1.4753300000 7.2329800000 -1.6630800000 -0.6077880000 0.1089970000
O -2.3034500000 1.4908000000 10.2528000000 -0.4108720000 1.3421770000 -1.2823270000
O 8.2973200000 9.1716300000 8.2284700000 0.3864890000 1.0617280000 0.1582440000
O -0.1306500000 0.0662200000 8.8268400000 1.5310200000 -0.1996170000 -0.4050080000
O 2.0385100000 1.7066200000 8.0861800000 -0.5142230000 -1.2071070000 -0.4032180000
O 6.2015100000 1.4708900000 9.2110000000 -0.8130430000 0.3300460000 -1.1863530000
O 1.9165800000 3.2056400000 0.5530800000 -0.0139970000 -0.2168780000 1.3114110000
O 9.3035900000 3.1569500000 5.1711200000 0.2442110000 -0.8483730000 -0.4977640000
O 7.9393000000 4.4154700000 0.4527400000 0.8755910000 0.9020350000 1.4622950000
O 3.0951100000 4.7622500000 5.1200100000 -0.2167710000 -1.9856660000 1.2741890000
O 5.6060500000 3.1677100000 1.4611300000 1.6365620000 -1.6777810000 0.0684660000
O 5.4693900000 2.9447600000 4.2556500000 -1.0942030000 0.3552040000 0.1244390000
O 11.8925000000 4.6365900000 1.4068400000 0.8935470000 0.4426250000 0.3852110000
O -0.8865100000 4.8050700000 4.1111200000 -0.5913940000 -1.3409870000 -0.0186190000
O 9.5759400000 3.0821000000 2.5356300000 1.5577650000 -0.2084490000 -0.4681890000
O 1.4132400000 3.0944600000 3.3174900000 0.8274400000 0.3630370000 -1.1407920000
O 3.5196900000 4.8190400000 2.4677700000 -1.8293040000 -1.0298340000 0.7375600000
O 7.5718000000 4.5955700000 3.0926900000 -0.2707450000 -0.3376690000 1.2149590000
O 0.3571900000 3.1932200000 6.2136200000 0.4884540000 -0.6443100000 1.5047410000
O 7.8461600000 2.9503500000 10.8327000000 -0.4741260000 1.6951370000 0.4822580000
O 6.6962700000 4.5094600000 6.3105500000 0.7181140000 -0.2285780000 1.2511540000
O 1.4803800000 4.6916100000 10.7591000000 -0.2353320000 1.0683110000 -0.5587920000