144
lattice="8.9077732450 0.0000000000 0.0000000000 -4.4538866220 7.7143579210 0.0000000000 0.0000000000 0.0000000000 19.4412864980" Properties=species:S:1:pos:R:3:force:R:3 energy=-1114.0702128700 virial="230.7994698058 2.0996798082 -1.4204241179 2.0996798082 233.0912333605 2.1440735339 -1.4204241179 2.1440735339 234.2114078020"
Si 1.4805100000 0.8320200000 9.1275700000 0.1643680000 0.7469380000 0.3287180000
Si 1.4927100000 0.8526400000 18.8145300000 -0.2240510000 0.2303100000 0.3418090000
Si -0.0006200000 3.4333000000 9.1184900000 -0.1926450000 -0.1503760000 -0.1640140000
Si -0.0159700000 3.4279600000 18.8239300000 0.5708380000 0.1808940000 0.0236250000
Si -1.4944400000 6.0228600000 9.1308100000 0.6623070000 -0.5811910000 -0.2670940000
Si -1.5181600000 6.0262800000 18.8601300000 0.9753160000 -0.9956900000 -0.6815110000
Si 4.4499100000 0.8729900000 9.1247600000 0.2658670000 -0.2574340000 -0.8014610000
Si 4.4728400000 0.8618900000 18.8434600000 -0.5878350000 -0.4450810000 -0.2740450000
Si 2.9984100000 3.4307100000 9.0939400000 -1.0395380000 0.0029240000 0.9694010000
Si 2.9344200000 3.3979700000 18.8332200000 0.9440810000 1.0163610000 0.2258750000
Si 1.4779400000 5.9977400000 9.1183400000 0.4113360000 -0.5271140000 0.1919640000
Si 1.4675000000 6.0079600000 18.8438700000 0.6514710000 -0.5058740000 -0.2612720000
Si 7.4052900000 0.8503500000 9.1295100000 0.8191740000 -0.1880650000 -0.2571800000
Si 7.4213600000 0.8566700000 18.7917400000 0.2385140000 0.4568640000 1.9567920000
Si 5.9389300000 3.4041600000 9.1019900000 0.1016560000 0.8800350000 -0.5431770000
Si 5.9370900000 3.3846200000 18.8545400000 -0.0615460000 1.1928970000 -0.4359920000
Si 4.4804200000 6.0009100000 9.1035300000 -0.6659350000 -0.7952380000 1.0471120000
Si 4.4836100000 6.0054300000 18.8061700000 -0.7227370000 -0.2534140000 0.8848840000
Si -0.0239900000 1.7031400000 4.2594500000 0.9176520000 0.4717690000 0.0272810000
Si -0.0021200000 1.7315000000 13.9653100000 0.4831610000 -0.7906770000 0.3064200000
Si -1.4827400000 4.2787000000 4.2197200000 -0.2642600000 0.1745450000 1.1888290000
Si -1.4465100000 4.2947500000 14.0053300000 -1.8515150000 -0.4750860000 -1.0809440000
Si -2.9350400000 6.8870100000 4.2386300000 -1.0740250000 -1.3864600000 0.3883850000
Si -2.9336300000 6.8297100000 13.9575300000 -0.3076680000 0.6384560000 0.7563500000
Si 2.9884900000 1.7181100000 4.2542100000 -0.5143880000 0.3485180000 0.1796250000
Si 2.9694100000 1.7134100000 13.9770000000 -0.1732440000 0.4088570000 -0.2035200000
Si 1.4913100000 4.2892600000 4.2477800000 0.1102920000 -0.1460650000 1.1053320000
Si 1.5057200000 4.3103300000 13.9611600000 -0.8882490000 -0.8409880000 0.4953140000
Si -0.0200900000 6.8438800000 4.2691200000 0.7107100000 0.5636000000 -0.2189570000
Si -0.0116500000 6.8839100000 13.9586000000 0.3829310000 -0.9122060000 0.4700940000
Si 5.9426300000 1.7344400000 4.2720200000 -0.2098490000 -0.2397400000 -0.7314280000
Si 5.9392300000 1.7073300000 13.9826800000 -0.0853440000 0.8072940000 -0.1219230000
Si 4.4421300000 4.2725500000 4.2635100000 -0.2288600000 0.3770600000 -0.6674340000
Si 4.4537000000 4.2825300000 13.9836500000 -0.0650970000 0.1344110000 -1.2056500000
Si 2.9625200000 6.8590300000 4.2610900000 -0.0862130000 0.0963320000 -0.1483140000
Si 2.9576600000 6.8618100000 13.9899800000 1.0344900000 -0.2743450000 -0.4393040000
Si 0.0002600000 0.0011900000 6.6867200000 -0.0081170000 -0.5040200000 0.3394330000
Si 8.8984400000 0.0070100000 16.4130000000 0.2534100000 -0.5184180000 0.0149020000
Si 7.4070400000 2.5454900000 6.6799600000 0.6358200000 1.0844190000 0.1460550000
Si 7.3911500000 2.5660000000 16.4247100000 1.0537430000 0.7734220000 -0.9382240000
Si -2.9398700000 5.1531600000 6.7238800000 -0.9418590000 -0.4826210000 -1.4091890000
Si 5.9064300000 5.1435200000 16.4299100000 1.5940170000 -0.5112240000 -0.8822380000
Si -1.4789400000 7.7041600000 6.6966500000 -0.3121330000 0.7598170000 -0.0718420000
Si -1.4803200000 7.7134900000 16.4502900000 -0.4724820000 -0.0352620000 -1.2374550000
Si 1.5134700000 2.5842700000 6.7027100000 -0.6181410000 -0.5006550000 0.7975270000
Si 1.5008500000 2.5870400000 16.3818700000 -1.0714930000 -0.5130950000 1.3511080000
Si 0.0168600000 5.1582900000 6.6727000000 -0.6704230000 -0.5011970000 0.7686580000
Si -0.0110500000 5.1631700000 16.3741300000 0.1831420000 -0.7791400000 1.6066670000
Si 1.4722300000 7.7132500000 6.6755000000 1.0981840000 0.3952310000 0.3972810000
Si 1.4617700000 7.7100600000 16.3893800000 0.8327450000 0.0693580000 0.6780750000
Si 4.4226900000 2.5604800000 6.6494900000 1.1132880000 0.5667600000 0.8805060000
Si 4.4790200000 2.5812000000 16.3822000000 -1.4561690000 -0.2354760000 1.0034010000
Si 2.9446700000 5.1481100000 6.6630100000 0.9720540000 0.2474460000 1.6853400000
Si 2.9704400000 5.1431900000 16.4028400000 -0.1529220000 -0.3492890000 0.2131770000
Si 4.4583600000 7.6995600000 1.8152700000 -0.4160690000 0.4878810000 0.0711860000
Si 0.0044500000 0.0158200000 11.5642900000 0.1096510000 -0.4483350000 -0.6208770000
Si -1.4603700000 2.5797300000 1.8497900000 -0.8255310000 -0.2871390000 -0.5250270000
Si -1.4719800000 2.5797000000 11.5515900000 -0.8181200000 0.1241940000 -0.5771360000
Si 5.9337700000 5.1440800000 1.8242900000 -0.1572590000 -0.7396750000 0.0077090000
Si 5.9266700000 5.1626700000 11.5633400000 -0.1276660000 -0.4262290000 -0.5064090000
Si -1.5124700000 7.6917000000 1.8064100000 1.1274770000 0.5939960000 1.0124870000
Si 2.9817500000 0.0048700000 11.5336700000 -0.0804750000 0.3507350000 0.4077630000
Si 1.5116900000 2.5752700000 1.8643200000 -0.2128900000 0.1120920000 -1.3349130000
Si 1.4950800000 2.5702600000 11.5538300000 -0.0014470000 -0.0950140000 -0.4848940000
Si 0.0080500000 5.1458800000 1.8166300000 0.2686110000 -0.2375880000 0.3643890000
Si -0.0232400000 5.1451000000 11.5774900000 0.8247500000 -0.0803340000 -0.8863250000
Si 5.9014900000 0.0215200000 1.8249000000 1.5208490000 -0.4410280000 0.0872310000
Si 1.4698900000 7.7102200000 11.5597500000 0.6275270000 0.1047680000 -0.7521970000
Si 4.4368900000 2.5960300000 1.8061600000 0.4279380000 -1.3954170000 0.3564250000
Si 4.4764800000 2.5767000000 11.5054400000 -0.4127530000 -0.0644490000 1.2219200000
Si 2.9701700000 5.1615300000 1.8143700000 0.0596090000 -0.9884990000 -0.3513850000
Si 2.9667000000 5.1423700000 11.5501300000 -0.4173300000 -0.1460390000 -0.0819920000
C 1.4740000000 0.8349700000 7.3295600000 0.6965560000 0.6571200000 -1.0743620000
C 1.4679700000 0.8409400000 17.0101400000 0.5491460000 0.6313540000 -0.3329420000
C -0.0016500000 3.4323400000 7.2866200000 0.0541290000 0.0954460000 -0.1445470000
C -0.0240000000 3.4265900000 17.0115200000 0.3785530000 0.2996440000 -0.5797580000
C -1.4975300000 6.0178700000 7.2917700000 1.1459600000 -0.2927710000 0.2458940000
C -1.4861000000 5.9987500000 17.0046400000 -0.3823160000 -0.0613000000 0.5173040000
C 4.4782400000 0.8665900000 7.2611900000 -1.0168080000 -0.1180650000 0.8946560000
C 4.4526400000 0.8487300000 17.0023200000 0.1396600000 0.6593120000 0.3665390000
C 3.0048700000 3.4471800000 7.3035700000 -0.7827920000 -0.2097380000 -0.6390430000
C 2.9408000000 3.4276800000 17.0346000000 1.1890970000 -0.0225280000 -0.9625510000
C 1.4824500000 6.0165200000 7.2990600000 0.0721660000 -0.2369160000 -0.2952190000
C 1.4839100000 5.9991700000 17.0100300000 -0.0087720000 0.2323120000 -0.2691250000
C 7.4406000000 0.8810800000 7.3078600000 -0.6273470000 -1.2301240000 -0.4269370000
C 7.4357600000 0.8969700000 17.0253300000 -0.8670270000 -1.5590700000 -1.2352920000
C 5.9367400000 3.4308700000 7.2459300000 -0.3118560000 -0.4928590000 0.8920620000
C 5.9280900000 3.4142100000 17.0060500000 0.0301680000 0.4795710000 0.5929840000
C 4.4693600000 5.9729900000 7.3254700000 -0.6888380000 0.6494660000 -1.4808480000
C 4.4795100000 5.9644900000 17.0070200000 -1.5098100000 1.3826930000 -0.0884520000
C 0.0186000000 1.7443000000 2.4125800000 -0.0747800000 -1.2263310000 0.6525090000
C -0.0113000000 1.7360100000 12.1269800000 0.6095520000 -0.4404260000 0.7055440000
C -1.4845200000 4.2853200000 2.4286000000 0.2023800000 0.4047890000 -0.4628870000
C -1.4962200000 4.2958500000 12.1290300000 -0.0931370000 -0.1555650000 1.2351020000
C -2.9641200000 6.8369000000 2.4103800000 -0.3113020000 0.4495140000 0.3963290000
C -2.9343600000 6.8731100000 12.1499000000 -0.8065770000 -0.0119970000 -0.1043540000
C 2.9734300000 1.7084200000 2.4450800000 0.2008680000 -0.4499500000 -0.5024230000
C 2.9806300000 1.7153700000 12.1324500000 0.1902770000 0.1006320000 0.3983930000
C 1.5111800000 4.2835200000 2.4649700000 -0.5129010000 0.2555070000 -1.1800960000
C 1.4870400000 4.2624400000 12.1598500000 -0.4060030000 0.9011540000 -0.1840170000
C 0.0279700000 6.8588000000 2.4381600000 -1.4393910000 -0.2375290000 -0.1273220000
C -0.0097900000 6.8713100000 12.1508700000 0.2741600000 -0.4681110000 0.0497090000
C 5.9330300000 1.7127400000 2.4314600000 0.1097830000 0.6604210000 0.0193130000
C 5.9424300000 1.7138000000 12.1606900000 0.0114650000 0.0416570000 -0.3149630000
C 4.4387000000 4.2571500000 2.3906500000 0.2226340000 1.2518530000 1.1747650000
C 4.4238800000 4.2827200000 12.1204900000 1.0040310000 -0.0207670000 0.9340120000
C 2.9708100000 6.8143100000 2.4322600000 -0.2572920000 1.8615010000 -0.0174070000
C 2.9765000000 6.8470400000 12.1379100000 -0.2780380000 0.4829600000 0.6316120000
C 4.4519300000 7.7075800000 4.8545200000 0.2908060000 -0.0154210000 0.1186890000
C -4.4173100000 7.6938600000 14.6075800000 -0.6828510000 0.5069240000 -0.9484220000
C 7.4161300000 2.5715800000 4.8625200000 0.3524620000 0.1161840000 -0.1384320000
C -1.4668600000 2.5747700000 14.5701800000 -0.7283680000 -0.2325020000 0.6921810000
C 5.9152600000 5.1029200000 4.8486500000 0.9791850000 1.5077700000 0.4168430000
C 5.9075600000 5.1315000000 14.5853500000 1.2685420000 -0.0213340000 0.2597440000
C 2.9661600000 0.0248300000 4.8607600000 0.3168030000 -0.5108990000 0.3914540000
C 2.9994800000 0.0092400000 14.5795900000 -0.7944800000 -0.0816960000 0.7926090000
C 1.4985400000 2.5742000000 4.9102200000 -0.2820270000 -0.1957220000 -1.2808300000
C 1.4768200000 2.5868200000 14.6141700000 0.3222510000 -0.0925620000 -1.5966780000
C 0.0008400000 5.1361300000 4.8703200000 -0.1680940000 0.0561410000 -0.4616890000
C -0.0216300000 5.1263700000 14.6056700000 1.4314030000 1.3710190000 -1.2086080000
C 5.9353700000 0.0346500000 4.8686900000 -0.1700160000 -0.9548600000 -0.2675820000
C 1.4857200000 7.7142200000 14.5806200000 -0.1535560000 -0.0115150000 0.0501740000
C 4.4589300000 2.5720400000 4.8685800000 -0.3255690000 -0.0054770000 -0.5909500000
C 4.4412400000 2.6057600000 14.5947300000 0.4319810000 -1.1833880000 -0.5411390000
C 2.9694800000 5.1627200000 4.9053800000 -0.1502240000 -0.4598400000 -1.5805720000
C 2.9731100000 5.1180600000 14.5685200000 -0.0124610000 1.0840920000 0.6487810000
C 0.0158200000 0.0095700000 19.4264500000 -0.5072970000 -0.2510760000 0.0490130000
C 4.4676300000 7.6882000000 9.7136600000 -0.6403180000 0.5811850000 0.8938150000
C -1.4782600000 2.6080100000 0.0228300000 -0.1166050000 -1.4606590000 -0.1018670000
C 7.4008700000 2.5596200000 9.7087500000 0.6495040000 0.1007470000 0.6927500000
C 5.9381400000 5.1350300000 0.0076500000 -0.1190730000 -0.3323610000 -0.1819720000
C -2.9409100000 5.1393300000 9.7307300000 -0.6080560000 -0.2607760000 0.0150490000
C 2.9562600000 0.0016900000 0.0244700000 0.5462850000 0.4161280000 -0.8689000000
C 2.9894200000 0.0045200000 9.7438900000 -0.3537000000 0.2193850000 -0.5719700000
C 1.4834100000 2.5541700000 19.4131700000 -0.5551190000 0.2081960000 1.4854060000
C 1.4762400000 2.5689100000 9.7309000000 0.5587860000 -0.1034750000 -0.3044010000
C 0.0011500000 5.1396100000 0.0005900000 -0.4044250000 0.2830280000 0.0734460000
C -0.0010200000 5.1475600000 9.7281600000 -0.2080210000 0.0611640000 0.3552390000
C 1.4859300000 7.7098200000 19.4403800000 0.2124330000 0.3644610000 0.0924910000
C 1.4771500000 7.7020000000 9.6946900000 -0.1906810000 0.3157020000 1.1415180000
C 4.4536600000 2.5555900000 0.0007100000 -0.4960550000 0.2143910000 -0.1168290000
C 4.4575900000 2.5806500000 9.7252600000 0.1311710000 -0.3353650000 -0.6032690000
C 2.9870800000 5.1497200000 19.4325300000 -0.4387680000 -0.2118650000 -0.1497160000
C 2.9695400000 5.1207800000 9.7550000000 0.1778470000 0.6984160000 -1.0752870000
144
lattice="8.9077732450 0.0000000000 0.0000000000 -4.4538866220 7.7143579210 0.0000000000 0.0000000000 0.0000000000 19.4412864980" Properties=species:S:1:pos:R:3:force:R:3 energy=-1114.1789701000 virial="231.3106146949 1.1544953609 -0.5208841588 1.1544953609 234.0335493928 0.7564527438 -0.5208841588 0.7564527438 231.8046658316"
Si 1.4833200000 0.8566000000 9.1173400000 -0.0340900000 0.0163850000 0.1443890000
Si 1.5152000000 0.8524400000 18.7986500000 -1.1256000000 0.2575230000 0.8817540000
Si 0.0004300000 3.4024000000 9.1351700000 -0.3975540000 0.4861190000 -0.7303240000
Si -0.0006400000 3.3986500000 18.8096200000 0.1661650000 0.4422340000 0.4470750000
Si -1.4671000000 6.0020000000 9.1618500000 -0.1010980000 0.0966510000 -1.3872580000
Si -1.5056800000 5.9799100000 18.8749600000 0.3451670000 0.6780710000 -1.6200140000
Si 4.4658800000 0.8559200000 9.0920400000 -0.4621780000 -0.1787950000 0.9033850000
Si 4.4648200000 0.8444200000 18.8262400000 0.0866550000 -0.1274470000 0.0291590000
Si 2.9550600000 3.4433700000 9.1281400000 0.4192460000 -0.3976200000 -0.8119310000
Si 2.9694300000 3.4286400000 18.8372400000 -0.0988460000 0.0011900000 -0.1248300000
Si 1.4795800000 5.9879600000 9.1321600000 0.2386590000 0.3207100000 -0.9967490000
Si 1.4720400000 5.9627600000 18.8594500000 0.2029870000 0.6550630000 -0.9109750000
Si 7.4292400000 0.8543600000 9.1060600000 -0.5781650000 -0.5002490000 -0.2524350000
Si 7.4450400000 0.8411600000 18.8215500000 -0.2782040000 0.0628250000 0.9300200000
Si 5.9356700000 3.4130600000 9.1003500000 -0.1069580000 0.2347890000 0.5499140000
Si 5.9488900000 3.4232000000 18.8230700000 -0.1533920000 0.4227580000 0.9190960000
Si 4.4631000000 6.0102800000 9.1235900000 0.4188970000 0.3262720000 -0.7951410000
Si 4.4539800000 5.9996300000 18.8371500000 -0.2242450000 -0.1682340000 0.0916650000
Si -0.0313200000 1.6968000000 4.2526300000 1.6951740000 0.1179620000 0.1286120000
Si 0.0056800000 1.7000600000 13.9585700000 -0.4411390000 0.9693920000 0.5468400000
Si -1.4995800000 4.2990000000 4.2254900000 0.2441640000 -0.4652850000 1.1908260000
Si -1.4937300000 4.3240600000 14.0043600000 0.2472760000 -1.5240620000 -0.9758890000
Si -2.9548200000 6.8289000000 4.2543600000 -0.4767040000 1.1888960000 -0.4771250000
Si -2.9452000000 6.8678000000 13.9728900000 -0.8729010000 -0.0192070000 0.7663600000
Si 2.9906600000 1.7260300000 4.2336700000 -0.4559530000 -0.4823210000 0.5575610000
Si 2.9636700000 1.7071600000 13.9644200000 0.1409210000 0.1732250000 0.9475190000
Si 1.4740400000 4.2826700000 4.2597200000 -0.7393060000 0.6763160000 -0.4342040000
Si 1.4875700000 4.2808300000 13.9738500000 -0.2274410000 -0.1652460000 0.6092270000
Si -0.0082400000 6.9030600000 4.2657000000 1.0003900000 -1.1930030000 0.0717670000
Si -0.0067900000 6.8384900000 13.9949400000 0.1953480000 0.5886930000 -0.2386450000
Si 5.9523300000 1.7310800000 4.2239700000 -0.4927330000 -1.0191310000 1.2289110000
Si 5.9331500000 1.6992700000 13.9852600000 0.1357390000 0.7790740000 -0.1419290000
Si 4.4382200000 4.2857800000 4.2589400000 0.4788620000 0.0787010000 0.0247510000
Si 4.4320700000 4.2937300000 13.9485200000 0.7435450000 -0.3861550000 1.0837770000
Si 3.0044800000 6.8581300000 4.2464900000 -1.5718550000 -0.4492470000 -0.0847490000
Si 2.9844100000 6.8704100000 13.9450100000 -0.3701430000 -0.0066820000 0.6393330000
Si 4.4208100000 7.7026200000 6.6551000000 1.0803040000 0.7648360000 0.8655520000
Si 0.0008400000 0.0036200000 16.4084400000 0.1463900000 -0.3901090000 0.0719370000
Si 7.4129900000 2.5820500000 6.6847500000 0.4089680000 -0.5827260000 -0.1499720000
Si 7.4171700000 2.5744100000 16.4304600000 -0.0311120000 -0.1190120000 -1.1153010000
Si 5.9402400000 5.1136100000 6.7044300000 -0.4284300000 0.5651140000 -0.1841030000
Si 5.9377000000 5.1402300000 16.4086500000 -0.5088390000 -0.4945690000 -0.2376950000
Si -1.4927100000 7.6848900000 6.6653900000 -0.2613590000 0.9573760000 0.6927830000
Si -1.4825500000 7.7052600000 16.4141400000 -0.3117620000 0.2083270000 -0.1467660000
Si 1.4496100000 2.6008500000 6.6784400000 1.0622200000 -0.8618290000 -0.2832520000
Si 1.4944000000 2.5777000000 16.4175200000 0.0200720000 -0.4878510000 -0.7072580000
Si -0.0190000000 5.1066800000 6.6871000000 0.0773540000 1.8598340000 0.0549090000
Si -0.0003900000 5.1476800000 16.4049100000 -0.1551120000 -0.1360480000 0.2509180000
Si 5.9193300000 0.0087100000 6.7027300000 0.7540600000 -0.5055780000 -0.1235000000
Si 1.4633500000 7.6824900000 16.4126700000 1.1494020000 1.7773060000 -0.4022160000
Si 4.4654700000 2.5741600000 6.6912400000 -0.9227110000 -0.7559040000 -0.3569210000
Si 4.4945200000 2.5804200000 16.4342100000 -1.7587950000 -0.3011290000 -1.3049920000
Si 2.9729300000 5.1432700000 6.6577700000 -0.1664020000 -0.1063720000 0.4391060000
Si 2.9617200000 5.1299100000 16.3852400000 0.6794700000 0.4521590000 0.5183010000
Si 0.0055700000 0.0292900000 1.8480300000 -0.8148350000 -0.7871360000 -1.3666260000
Si 8.8975600000 0.0017200000 11.5577800000 0.6937990000 0.2608180000 -0.3993780000
Si -1.4564200000 2.6089600000 1.8282600000 -0.7924260000 -1.2684380000 -0.1210860000
Si 7.4163100000 2.5813600000 11.5144000000 0.2446080000 -0.8136180000 0.9997050000
Si -2.9588900000 5.1380000000 1.8356200000 -0.7954160000 0.5484630000 -0.4047820000
Si 5.9362500000 5.1418000000 11.5489200000 0.3491740000 0.2120560000 -0.0153350000
Si 2.9721700000 0.0219600000 1.8051300000 -0.0000020000 -0.8482570000 0.5728980000
Si 2.9574700000 0.0352700000 11.5643300000 0.4130120000 -1.2737930000 -0.2508360000
Si 1.4996400000 2.5668000000 1.8662900000 -0.2591030000 0.1453400000 -1.0466350000
Si 1.4835600000 2.5640000000 11.5304200000 0.0562000000 0.1506870000 1.1427200000
Si -0.0213200000 5.1304500000 1.8053300000 0.9137310000 0.7704130000 0.6291470000
Si -0.0170400000 5.1288100000 11.5354900000 0.4510040000 0.6511370000 0.5596660000
Si 5.9345700000 0.0166100000 1.8126100000 0.4195240000 -0.4700460000 0.7879720000
Si 1.4802900000 7.7134400000 11.5494900000 -0.0216310000 -0.0657330000 0.0043660000
Si 4.4400600000 2.5972400000 1.7860100000 0.8776620000 -0.7363470000 1.0800590000
Si 4.4245700000 2.5639100000 11.5673500000 0.9272880000 0.3260400000 -0.2774300000
Si 2.9597900000 5.1716100000 1.8309300000 0.3776250000 -0.6938670000 -0.2138220000
Si 2.9576000000 5.1644600000 11.5283100000 -0.0693630000 -1.2468510000 0.2382810000
C 1.4789800000 0.8942900000 7.3127800000 -0.2383060000 -0.8958550000 -1.2090180000
C 1.4843500000 0.8576000000 17.0095700000 0.3249620000 0.0223720000 -0.5829370000
C 0.0031300000 3.4445600000 7.2842100000 -0.8110350000 -0.7626790000 0.7372220000
C 0.0026200000 3.4119200000 16.9978200000 0.0211790000 0.7630140000 0.0765600000
C -1.5289000000 5.9915000000 7.2956800000 1.2615790000 -0.1535650000 0.6135350000
C -1.5192900000 5.9852100000 16.9862300000 1.2025370000 0.2092690000 1.2101380000
C 4.4651700000 0.8498700000 7.2979000000 -0.9381580000 0.1285110000 -0.6160660000
C 4.4517400000 0.8731100000 16.9783500000 0.1463750000 -0.7125210000 0.9799370000
C 2.9638100000 3.4032700000 7.2657900000 0.0565230000 0.8773810000 0.7093400000
C 2.9763500000 3.4256000000 17.0094900000 0.0726750000 0.0699180000 -0.0009210000
C 1.4851200000 6.0005700000 7.2868300000 -0.3268390000 -0.4001510000 0.1137060000
C 1.4947800000 6.0241500000 16.9876800000 -0.3703660000 -1.4281130000 1.0713390000
C 7.4234500000 0.8582900000 7.2891400000 -0.2259060000 0.2163530000 -0.1525470000
C 7.4614500000 0.8788900000 17.0323100000 -1.4001680000 -0.8081660000 -0.7714530000
C 5.9222500000 3.4019200000 7.2907200000 0.4911990000 0.4963270000 -0.1202890000
C 5.9081400000 3.4075300000 17.0347500000 1.6233360000 0.9815050000 -0.4553320000
C 4.4663900000 6.0168600000 7.2629700000 -0.4178660000 -0.7791910000 0.6239840000
C 4.4760300000 5.9850000000 17.0353700000 -0.9008520000 0.2809280000 -1.0400870000
C -0.0008400000 1.7107500000 2.4320800000 0.1252490000 0.7248810000 0.1060910000
C 0.0256300000 1.7049000000 12.1690000000 -0.9564400000 0.2772630000 -1.1626740000
C -1.4893100000 4.2907500000 2.4304100000 0.0797870000 0.3051530000 -0.2192980000
C -1.4709100000 4.2706500000 12.1388600000 -0.7449660000 0.4419110000 0.4407360000
C -3.0057000000 6.8762800000 2.4132900000 1.4810960000 -0.5568070000 0.4796290000
C -2.9671000000 6.8783400000 12.1770000000 -0.1062530000 -0.5689870000 -0.9550400000
C 2.9865100000 1.7116800000 2.4234600000 -0.0051410000 0.2689730000 -0.1842760000
C 2.9707000000 1.6997900000 12.1636100000 -0.4527550000 0.9488520000 -0.3343980000
C 1.4884900000 4.2870700000 2.4214700000 -0.4494310000 0.1439760000 0.0787710000
C 1.4577700000 4.2682700000 12.1844900000 0.7526320000 0.5293730000 -1.4492980000
C 0.0237200000 6.8734400000 2.4523400000 -0.9369930000 -0.4820660000 -0.9514420000
C -0.0124800000 6.8660000000 12.1777300000 0.1147920000 -0.4545790000 -0.7436510000
C 5.9549300000 1.6990300000 2.4423500000 -0.2545110000 1.2485940000 -1.3202620000
C 5.9326800000 1.7127700000 12.1548900000 0.1317020000 0.0961630000 -0.2799840000
C 4.4587800000 4.2791500000 2.4323900000 -0.1840570000 0.4640410000 -0.2146360000
C 4.4540500000 4.2990900000 12.1675500000 -0.4567000000 -0.2429170000 -1.2486380000
C 2.9669300000 6.8567200000 2.4297900000 0.1238690000 0.7087010000 -0.1579530000
C 2.9992900000 6.8395600000 12.1239200000 -1.1058310000 0.6907940000 0.4274460000
C 4.4392600000 7.6890100000 4.8548600000 1.2187030000 0.6250130000 -0.0883730000
C -0.0115500000 0.0385400000 14.5879200000 0.5106640000 -1.4530740000 -0.0241280000
C 7.4389100000 2.5399800000 4.8515100000 -0.7191440000 1.5063080000 0.3470450000
C -1.4773900000 2.5705800000 14.5703900000 -0.2960280000 0.2967090000 0.6200400000
C -2.9601900000 5.1763900000 4.8849100000 -0.5507920000 -1.7464420000 -0.3600480000
C -2.9670900000 5.1403000000 14.5831900000 -0.8108670000 0.4025900000 0.0858350000
C -1.4861800000 7.7012300000 4.8445400000 -0.4353660000 1.0156030000 0.3271790000
C -1.4798400000 7.7129100000 14.5981000000 0.0589710000 0.0761390000 -0.1166100000
C 1.5184000000 2.5948700000 4.8490300000 -1.2552000000 -1.1373380000 0.0582090000
C 1.4690300000 2.5500700000 14.5752700000 0.5742240000 0.5927080000 0.4405450000
C -0.0395000000 5.1556300000 4.8717900000 0.6776540000 -0.1100280000 -0.4724090000
C -0.0088300000 5.1437800000 14.5894000000 0.5717920000 -0.1894730000 0.1869380000
C 1.5097600000 7.6943700000 4.8989300000 -0.2879010000 0.8701120000 -0.9291180000
C 5.9310700000 0.0043800000 14.5797500000 0.3546770000 -0.6615760000 0.1713300000
C 4.4457200000 2.5686600000 4.8650600000 0.8689970000 0.1399690000 0.0066240000
C 4.4476900000 2.5730400000 14.5898400000 0.0365140000 0.1966850000 0.0341630000
C 2.9457200000 5.1344700000 4.8271100000 0.5829510000 0.3398080000 0.6046620000
C 2.9783000000 5.1540000000 14.5730500000 -0.4225260000 0.0968690000 -0.0364900000
C -4.4399100000 7.6905900000 19.4213800000 0.1997690000 0.9504430000 0.9066510000
C 8.8820700000 0.0258600000 9.7259300000 0.9710900000 -0.6924850000 0.3297910000
C -1.4785700000 2.5786300000 0.0098700000 -0.1365890000 -0.4962050000 -0.1385720000
C 7.4120000000 2.5386700000 9.7011800000 0.1328430000 0.8284360000 0.2294840000
C -2.9715400000 5.1656800000 0.0007100000 -0.3758690000 -1.2829620000 0.5779350000
C -2.9372200000 5.1394300000 9.7035600000 -0.9374330000 -0.2387190000 0.7216340000
C -1.5019400000 7.7108700000 19.4319100000 0.9966540000 -0.0588970000 0.0625350000
C -1.4885400000 7.7042600000 9.7416800000 0.2357450000 0.6735290000 -0.0666680000
C 1.4859400000 2.5748800000 0.0014900000 0.0959470000 -0.4462210000 0.4463070000
C 1.4702100000 2.5845900000 9.7466400000 0.5753590000 -0.4314630000 -0.5742580000
C -0.0226700000 5.1314700000 19.4272000000 0.1653940000 -0.4549000000 0.2241060000
C 0.0093400000 5.1284300000 9.7158700000 -0.0485000000 -0.2440020000 0.4023720000
C 1.4999400000 7.6776700000 0.0277400000 -0.2743620000 0.6687120000 -1.1487230000
C 1.4867600000 7.7023000000 9.7166100000 -0.0739500000 0.1961190000 0.2893320000
C 4.4576900000 2.5739700000 19.4382600000 0.0994000000 -0.2660480000 -0.4720380000
C 4.4529700000 2.5680700000 9.7317400000 -0.3178270000 0.1354060000 0.0266680000
C 2.9638700000 5.1383000000 19.4345100000 0.2644930000 -0.1039670000 0.4786330000
C 2.9867500000 5.1623100000 9.6946600000 -0.3316630000 -0.4408690000 0.8410320000
144
lattice="8.9077732450 0.0000000000 0.0000000000 -4.4538866220 7.7143579210 0.0000000000 0.0000000000 0.0000000000 19.4412864980" Properties=species:S:1:pos:R:3:force:R:3 energy=-1114.5094566000 virial="234.3651681895 0.8394199811 1.2799885188 0.8394199811 232.0436198135 1.8739922459 1.2799885188 1.8739922459 230.0450182817"
Si 1.5060400000 0.8832100000 9.1258600000 -0.6848340000 -1.1253690000 -0.2688390000
Si 1.4715600000 0.8585200000 18.8365600000 0.2284630000 -0.2225410000 -0.4613670000
Si 0.0025700000 3.4273000000 9.1160600000 -0.0155520000 -0.1878320000 0.2672370000
Si -0.0018500000 3.4300900000 18.8388600000 0.1361900000 0.4598890000 0.1439780000
Si -1.4806700000 5.9963100000 9.1172800000 -0.4881300000 0.3179160000 -0.1215620000
Si -1.4804100000 5.9571500000 18.8464500000 -0.2380600000 1.5702500000 -0.5201710000
Si 4.4543100000 0.8616300000 9.1118500000 0.0730520000 -0.1438150000 -0.0249440000
Si 4.4423300000 0.8612500000 18.8147200000 -0.1892450000 -0.3264310000 0.2379350000
Si 2.9580100000 3.4027700000 9.1447400000 0.5318750000 0.9202910000 -0.9058010000
Si 2.9729200000 3.3906200000 18.8477600000 -0.7527300000 1.4505070000 -0.8727250000
Si 1.4694900000 5.9936000000 9.1334500000 -0.0138970000 0.3501290000 -0.4400140000
Si 1.4970300000 6.0216000000 18.8037500000 -0.4493180000 -0.7034890000 1.2847450000
Si 7.4221300000 0.8889400000 9.0976500000 -0.0882400000 -1.1349600000 0.8768130000
Si 7.4189700000 0.8701300000 18.8504200000 -0.1533520000 -0.8139660000 -0.1075800000
Si 5.9229300000 3.4398800000 9.1148000000 0.1747940000 -0.0125240000 0.5493120000
Si 5.9504200000 3.4379100000 18.8508000000 -0.5629110000 -0.6086960000 -0.3622370000
Si 4.4579100000 5.9945400000 9.1213100000 -0.4941230000 0.5712630000 -0.0139860000
Si 4.4507500000 5.9991400000 18.8334800000 -0.0087290000 -0.0826520000 -0.2724590000
Si -0.0058800000 1.6894900000 4.2617400000 -0.0626240000 0.5429880000 -0.3752730000
Si 0.0012800000 1.7079700000 13.9767600000 -0.0107970000 -0.0726330000 -0.1565500000
Si -1.4860800000 4.2857000000 4.2549100000 0.1453460000 0.0385830000 -0.1527040000
Si -1.4520500000 4.3003700000 13.9786800000 -1.1874900000 -1.0286080000 -0.7770930000
Si -2.9737700000 6.8980400000 4.2463500000 -0.2544150000 -1.7443010000 -0.0066040000
Si -2.9690300000 6.8582000000 13.9776800000 -0.3793800000 -0.0354320000 0.3122780000
Si 2.9898900000 1.7206100000 4.2280900000 -0.7445270000 -0.0357580000 1.5793320000
Si 2.9747500000 1.7330700000 13.9734900000 -0.5442900000 -0.8885380000 0.0773990000
Si 1.4844500000 4.2856500000 4.2559000000 -0.5233670000 -0.3359190000 -0.2331940000
Si 1.5145300000 4.3036500000 13.9631800000 -1.1365400000 -0.7521800000 0.9656230000
Si 0.0004900000 6.8554400000 4.2571000000 -0.1180430000 -0.0522970000 -0.0730950000
Si 0.0140900000 6.8432700000 13.9984500000 -0.7379050000 0.7239850000 -0.8210110000
Si 5.9687900000 1.7257600000 4.2592600000 -1.2111240000 -0.8988940000 -0.3167890000
Si 5.9316400000 1.7040900000 13.9979300000 0.6598490000 0.4942770000 -0.9979860000
Si 4.4519600000 4.2897400000 4.2587400000 0.4673930000 -0.2599450000 -0.2000170000
Si 4.4605600000 4.2899600000 13.9901000000 0.1585150000 -0.5708980000 -0.7182340000
Si 2.9711300000 6.8448100000 4.2499400000 0.0685150000 -0.3560030000 0.1254340000
Si 2.9712800000 6.8197300000 13.9756300000 -0.0279330000 0.6790860000 -0.1183760000
Si 4.4465800000 7.6986700000 6.6833900000 -0.0537780000 0.5967260000 0.5118100000
Si 4.4549300000 7.7030600000 16.4046000000 0.5097790000 0.1281290000 0.3568320000
Si 7.4206500000 2.5709700000 6.6889900000 -0.0855720000 0.0084920000 0.0378080000
Si 7.3982300000 2.5706600000 16.4412400000 1.4995880000 0.2056040000 -1.0128620000
Si -2.9451900000 5.1289500000 6.7032200000 -0.4739680000 0.8753490000 -0.4301560000
Si -2.9594500000 5.1501400000 16.4167800000 -0.2146140000 -0.3795420000 -1.0872040000
Si 2.9376500000 0.0071700000 6.6777300000 1.0815050000 0.6458580000 -0.2399460000
Si 2.9794800000 0.0220800000 16.4378200000 -0.4150210000 -0.7325700000 -0.9441660000
Si 1.5022500000 2.5745100000 6.6757200000 -0.3902140000 0.0260730000 0.1724850000
Si 1.4814200000 2.5902000000 16.3949700000 -0.2311580000 -0.2186220000 0.7668770000
Si -0.0030600000 5.1675900000 6.7064600000 0.2910070000 -0.4934330000 -0.3762280000
Si -0.0336200000 5.1484400000 16.3909100000 0.6455660000 0.0675630000 0.2595690000
Si 1.4585600000 7.6983500000 6.6511200000 0.8073730000 0.3993100000 1.7579780000
Si 5.9387900000 0.0002000000 16.4077000000 0.5837960000 -0.2788750000 0.4611240000
Si 4.4628600000 2.5978100000 6.7099700000 -0.3167460000 -0.7410420000 -0.5231040000
Si 4.4536900000 2.5666000000 16.4108500000 0.0086310000 0.4599210000 -0.6461530000
Si 2.9930700000 5.1402900000 6.6523700000 -0.7968860000 0.0775450000 1.8785310000
Si 2.9688100000 5.1421700000 16.4070600000 -0.0702610000 -0.4487630000 0.4303740000
Si 4.4524500000 7.7050900000 1.8468000000 0.1357760000 0.1634290000 -0.6382150000
Si 4.4270100000 7.7037900000 11.5518800000 1.0232220000 -0.0621620000 -0.1956870000
Si 7.4302300000 2.5512100000 1.8214500000 -0.0823090000 0.4020260000 0.5970880000
Si -1.4742500000 2.5804600000 11.5503100000 -0.2551450000 0.1138340000 -0.4309720000
Si 5.9374700000 5.1225100000 1.8097000000 0.0667680000 0.5523120000 0.8553110000
Si 5.9397500000 5.1402700000 11.5429200000 0.0932610000 0.0316340000 0.7509550000
Si -1.4805500000 7.7124300000 1.8240300000 -0.1502920000 -0.1156320000 0.0045540000