144
lattice="9.2642450220 0.0000000000 0.0000000000 -4.6321225110 8.0230715360 0.0000000000 0.0000000000 0.0000000000 20.2192890090" Properties=species:S:1:pos:R:3:force:R:3 energy=-1116.3099669300 virial="-25.3623742251 -3.2794984077 -3.6984874784 -3.2794984077 -20.8429709567 3.6582938685 -3.6984874784 3.6582938685 -10.4359870702"
Si 7.6861700000 0.7929400000 9.5762400000 0.8131410000 1.8864850000 -2.1014300000
Si 6.1348000000 1.8401200000 4.4396400000 1.9504060000 -0.6249920000 -1.1912200000
Si 1.5449700000 8.0122800000 6.8787900000 0.3816560000 0.6791670000 1.7453510000
Si 1.5122100000 7.9974900000 1.8626300000 0.5239120000 0.4684460000 0.6940590000
Si 7.6484300000 0.8657100000 19.6603000000 1.8081170000 0.0253140000 -0.8353570000
Si 6.2315200000 1.8052300000 14.5240000000 -1.1363690000 0.6324010000 0.4741920000
Si 1.5648000000 7.9789700000 17.0447000000 0.8462520000 -0.1160880000 1.0472730000
Si 1.5258800000 8.0155900000 12.0280000000 1.2980980000 -0.9369750000 -0.0595720000
Si 6.1652200000 3.5448300000 9.6305500000 -0.2956800000 0.6739220000 -3.2080610000
Si 4.5758500000 4.5419500000 4.4680500000 1.5829560000 -0.3259280000 -1.0788970000
Si 4.6631500000 2.7204600000 6.9111100000 -0.0808140000 0.6933260000 1.6962380000
Si 4.6925700000 2.7743500000 1.8566700000 -0.6354900000 -0.9021970000 -0.0857740000
Si 6.1670400000 3.5965600000 19.5757000000 -0.3631260000 -0.6991580000 -0.3424770000
Si 4.6037200000 4.5487300000 14.5553000000 0.4466300000 -1.7302170000 0.9296590000
Si 4.5830700000 2.6728400000 16.9526000000 3.6756270000 -2.3990990000 1.2421630000
Si 4.7351200000 2.6817700000 12.0438000000 -1.1792840000 0.1418720000 1.0524940000
Si 4.6238100000 6.2669800000 9.6273000000 0.1602690000 -0.4265870000 -0.7121600000
Si 3.0654400000 7.1012400000 4.4662300000 -0.0051290000 1.6380090000 -0.3517030000
Si 3.1157800000 5.4062700000 7.0051100000 0.3301560000 -1.3076680000 0.5236880000
Si 3.0098700000 5.3100300000 1.8427900000 0.9045240000 0.9789470000 1.9123200000
Si 4.5535500000 6.3158000000 19.5676000000 0.5251670000 -0.6372020000 1.2104160000
Si 3.0277300000 7.0862600000 14.5787000000 0.5382510000 1.6372740000 0.0279870000
Si 3.0791900000 5.2094000000 17.1092000000 0.1551050000 1.9312040000 0.3433920000
Si 3.0961900000 5.4559800000 12.0282000000 1.0036480000 -1.8733370000 -0.1148400000
Si 1.5732900000 0.8700600000 9.4818800000 0.3684810000 0.9548210000 1.5325390000
Si 0.0238000000 1.7106500000 4.5044500000 -0.3990080000 1.7880540000 -0.5837590000
Si 4.6462500000 7.9910400000 7.0969200000 0.1612850000 0.1007840000 -0.0742800000
Si 9.2265300000 0.0556700000 1.9325900000 -0.4313690000 -0.7220900000 -0.0703140000
Si 1.6105900000 0.9400800000 19.4786000000 -1.6251970000 -0.5862320000 1.7222990000
Si -0.0418600000 1.7924400000 14.5468000000 0.5759140000 0.4953390000 1.4466460000
Si -4.5439800000 7.9752900000 17.0268000000 -1.9938750000 0.3248210000 0.8726330000
Si -0.0157500000 0.0458200000 12.1074000000 1.2589480000 -1.5634960000 -1.1731480000
Si -0.0308100000 3.6270200000 9.3908200000 0.0767750000 -1.4870450000 2.5440820000
Si -1.5961400000 4.4584500000 4.4582200000 2.0816930000 -0.0310030000 -0.6817010000
Si -1.4597300000 2.6321800000 6.9876000000 -3.0278270000 1.2238290000 -0.8603650000
Si -1.5043700000 2.6741600000 1.9092200000 -0.2440160000 0.8043880000 -0.4000240000
Si 0.0076300000 3.5767300000 19.5076000000 -1.1522530000 -0.1451890000 1.5866980000
Si -1.4678000000 4.3972800000 14.5414000000 -0.9730140000 0.9774440000 0.7936880000
Si -1.4546400000 2.6310100000 17.0697000000 -1.0605840000 -0.6753370000 2.1576620000
Si -1.4437400000 2.6333600000 12.0090000000 -1.5049100000 -0.0984720000 -1.0578150000
Si -1.5490600000 6.3359500000 9.4414300000 -0.1226530000 -1.1932500000 0.4915470000
Si -3.0757900000 7.2458400000 4.4901800000 -0.8500490000 -1.9224470000 0.0410930000
Si -3.0600800000 5.3543500000 6.9037400000 -0.5614700000 0.1302020000 1.9052930000
Si 6.0703700000 5.5177300000 1.9065900000 1.1789430000 -3.4316320000 0.3488210000
Si -1.6496700000 6.2920500000 19.6734000000 0.3714480000 -0.0555640000 -0.4231810000
Si -3.1171800000 7.0828200000 14.6110000000 0.2477940000 0.8221040000 -1.3080170000
Si 6.1505700000 5.2665900000 17.0650000000 1.1993710000 0.6182960000 0.5632650000
Si -3.0131200000 5.3459400000 12.0547000000 -0.8659890000 0.3900630000 -0.0214760000
Si 4.6787000000 0.8958800000 9.5648000000 -0.1444100000 0.2837710000 -1.5549970000
Si 3.1422400000 1.7557900000 4.3938900000 0.2930040000 1.6683760000 0.8592020000
Si 3.1462700000 0.0218600000 6.9694500000 -0.3032010000 1.2285600000 0.8600560000
Si -1.5193500000 7.9348200000 2.0175800000 -0.7043470000 1.5411680000 -2.2194900000
Si 4.6438200000 0.9162700000 19.5514000000 -0.1083590000 -0.9218100000 0.5798610000
Si 3.0089500000 1.9526500000 14.4683000000 1.4563030000 -2.1420220000 2.6823770000
Si -1.4780900000 7.9988600000 17.0285000000 -0.8262980000 0.0997410000 0.3529140000
Si 3.1630000000 0.1435400000 12.1049000000 -1.3038810000 -2.6300250000 -0.4743750000
Si 3.0879400000 3.5637800000 9.6170000000 0.2931850000 0.1055890000 -2.3138430000
Si 1.5994000000 4.4787100000 4.4015800000 -1.1045720000 -0.9183760000 1.8278760000
Si 1.5566800000 2.6502000000 6.9264500000 0.5477220000 1.1246130000 2.6679110000
Si 1.6410500000 2.5992800000 1.8859600000 -1.9287970000 -0.3895850000 -0.6201240000
Si 3.0873400000 3.5861900000 19.5133000000 -0.7240210000 -0.3240550000 1.5691670000
Si 1.5249900000 4.5533600000 14.5220000000 -0.0192350000 -0.5378990000 -0.2889780000
Si 1.6409000000 2.7377000000 16.9964000000 -2.1008940000 -1.0385790000 0.8051520000
Si 1.4929800000 2.7294300000 11.9953000000 1.3207930000 -0.7563600000 -0.0407820000
Si 1.4810600000 6.1989600000 9.5041600000 0.9695570000 0.0316520000 -0.8342630000
Si -0.0938700000 7.2130400000 4.4555100000 2.9011260000 -2.8358170000 -0.3662770000
Si -0.0241200000 5.3309000000 6.9400500000 0.8570980000 0.5070880000 -0.2875430000
Si 0.0529700000 5.2406100000 2.0045300000 -0.9878790000 0.7253290000 -1.7727880000
Si 1.4110300000 6.0956200000 19.5891000000 1.5501910000 2.4618180000 0.3064350000
Si -0.0221000000 7.1443800000 14.5693000000 0.4689520000 0.9594380000 -0.8258120000
Si -0.0862300000 5.3859400000 17.1230000000 2.3544660000 -1.0747680000 -0.4170370000
Si 0.0057800000 5.3352900000 12.0418000000 -0.0450300000 0.8671250000 -1.1163930000
C 7.7491000000 0.9301300000 7.6239400000 -0.5225920000 -2.0978590000 0.3615060000
C 6.1861100000 1.8306600000 2.4337200000 -0.2764120000 -0.7931980000 1.2788900000
C 6.1329400000 0.0231500000 5.0394700000 0.1906880000 0.2520540000 -0.4524740000
C 1.5308300000 7.9505300000 20.2001100000 -1.0652780000 0.0779570000 0.4677450000
C 7.7310300000 0.7947100000 17.7581000000 0.8448970000 0.8078020000 -0.9479830000
C 6.2426800000 1.7080500000 12.6241000000 0.0894050000 1.8189400000 0.5048820000
C 6.1986200000 0.1091500000 15.1773000000 -0.7311960000 -2.5444350000 -0.0886230000
C 1.5770900000 7.9477100000 10.1557000000 -1.1350110000 0.3662780000 0.1413090000
C 6.1624600000 3.6419800000 7.5608300000 1.0379620000 -1.6780660000 1.1393990000
C 4.5752100000 4.5296300000 2.4914400000 0.4452670000 -0.2923370000 1.0986250000
C 4.7252200000 2.7653400000 5.0736800000 -2.3580150000 -0.4730220000 -0.8580020000
C 4.5325000000 2.6728900000 20.1864900000 1.9865240000 0.6315120000 0.0468650000
C 6.1820000000 3.5016500000 17.5630000000 0.2239520000 0.0315670000 2.1711790000
C 4.6418400000 4.4232000000 12.7363000000 0.4180800000 1.4587000000 -1.8939010000
C 4.6222800000 2.6844600000 15.1732000000 -0.2768380000 0.5840380000 -2.0587000000
C 4.6209700000 2.6739000000 10.2090000000 0.5552740000 -0.1590750000 -0.2515210000
C 4.6743800000 6.1841000000 7.7445700000 -0.2099540000 1.3729700000 -1.5725870000
C 3.0883200000 7.1273000000 2.5888900000 -0.8859350000 -0.2881840000 -1.0747340000
C 3.0774100000 5.4031500000 5.1171200000 0.1610010000 -0.7405540000 -0.1044910000
C 3.0389500000 5.3859400000 0.0483200000 -0.4939240000 -0.9902960000 -2.3427890000
C 4.6390700000 6.1482700000 17.7024000000 -0.2098640000 0.8192430000 -0.5348570000
C 3.1218100000 7.1496900000 12.6722000000 -0.9861290000 0.2692270000 0.4678440000
C 3.0316700000 5.3603700000 15.2719000000 0.7317260000 -0.0367740000 -1.5101570000
C 3.0376800000 5.3326600000 10.1831000000 0.7423890000 0.9246560000 -0.2760440000
C 1.5908500000 0.9076200000 7.6854700000 -0.2247120000 -0.5816990000 -2.1825010000
C -0.0126000000 1.7583600000 2.5786400000 1.1833810000 0.6132130000 0.0113720000
C 9.2410200000 0.0011400000 5.2046200000 0.2991260000 -0.6816660000 -0.7521330000
C 0.0321600000 0.0094100000 0.0985700000 -0.5598890000 0.6195910000 -2.2190170000
C 1.5671800000 0.9431200000 17.6075000000 0.7516710000 -0.8591370000 -0.0896250000
C -0.0022700000 1.7281200000 12.7290000000 0.8102140000 2.2069810000 -1.0172000000
C 9.1907500000 0.0433200000 15.1499000000 1.1075870000 -1.4913470000 0.5840210000
C 0.0221000000 0.1242200000 10.1856000000 -0.1921740000 -2.3164260000 0.5288930000
C -0.0891400000 3.6054900000 7.6181400000 2.4193430000 -0.2819030000 -1.7953690000
C -1.4893900000 4.4658500000 2.5598700000 -2.1314720000 0.0441430000 -0.0320800000
C -1.5322800000 2.6952000000 5.0352100000 0.2702280000 -1.0178830000 1.0501920000
C -1.5184000000 2.6880500000 20.1881800000 -0.8593850000 -0.0895860000 0.4434820000
C 0.0593100000 3.5771600000 17.6940000000 -0.1074230000 -0.0696230000 -1.4621710000
C -1.4665500000 4.3900200000 12.6549000000 -0.5091490000 0.2905850000 0.3170300000
C 7.7156900000 2.6803700000 15.2887000000 0.7493360000 -0.2057630000 -3.0998790000
C 7.6759200000 2.6144000000 10.0360000000 1.4749870000 0.4609600000 2.2433780000
C -1.5345400000 6.2948200000 7.4538800000 0.1866910000 -0.4242120000 2.3502920000
C -3.2095100000 7.1676300000 2.5725800000 2.3033250000 1.4526320000 1.2003300000
C -3.0321000000 5.3762000000 5.0890700000 -1.9572740000 1.1515610000 -1.1508510000
C 6.0613900000 5.3588500000 0.0626100000 0.5799250000 0.7270930000 -1.1597590000
C -1.5258800000 6.2236100000 17.7774000000 -2.0826540000 0.6461270000 -0.7899250000
C -3.0926900000 7.1552700000 12.6483000000 0.9521950000 -0.0688930000 0.6956070000
C 6.2003100000 5.2885000000 15.2042000000 -0.0929790000 0.8646510000 -0.6682470000
C -3.0654600000 5.3283300000 10.1414000000 0.0616520000 1.0046410000 0.9051520000
C 4.6824800000 0.9615000000 7.5622500000 -0.1467810000 -1.0169260000 0.8747980000
C 3.1741800000 1.7958000000 2.5029800000 0.0961400000 -1.1215790000 0.7515880000
C 3.1264300000 0.0247000000 5.1269300000 -1.4635470000 1.1313440000 -1.0630920000
C 3.0748800000 0.0871800000 0.0302700000 0.2965260000 -1.2804950000 0.2371400000
C 4.6887100000 0.8255800000 17.6652000000 -0.7656390000 1.0690010000 -0.1805940000
C 3.1343200000 1.8525600000 12.7187000000 -0.5940230000 0.8212890000 -2.5975000000
C -1.5696800000 8.0152500000 15.1396000000 -0.1457550000 0.9523060000 0.2446950000
C 3.1333700000 0.0559700000 10.2043000000 -0.4138630000 -0.3264160000 -0.7656070000
C 3.1099100000 3.6175900000 7.6061800000 -0.4368390000 -0.8362080000 0.3287110000
C 1.5671700000 4.3198500000 2.5591100000 0.3890560000 1.3029770000 -0.6351900000
C 1.6242900000 2.6303200000 5.1406500000 -0.7184380000 0.3804790000 -2.4068470000
C 1.4722400000 2.6721800000 20.1435700000 1.8861350000 0.6671540000 0.9048830000
C 3.1898700000 3.4288800000 17.6530000000 -2.2050160000 2.5088850000 0.8860400000
C 1.5878600000 4.5402600000 12.5369000000 -0.8473710000 -0.9543390000 2.3062500000
C 1.5194200000 2.7969200000 15.1643000000 -0.4933820000 -0.8191700000 -0.9566220000
C 1.5751100000 2.6381300000 10.0961000000 -1.5348970000 0.9365860000 0.7593100000
C 1.5642500000 6.2090100000 7.5312000000 -1.1199400000 0.9705030000 1.4489670000
C 0.0170400000 7.0365200000 2.5464400000 -0.1825880000 0.8620140000 0.4790550000
C 0.0258400000 5.3445700000 5.0939500000 -0.5111680000 0.2630980000 -1.2150140000
C -0.1225000000 5.3481000000 20.1878000000 0.6084100000 -0.9934200000 1.8283750000
C 1.5802400000 6.1512800000 17.7448000000 -0.9401740000 0.1684180000 -1.2824930000
C 0.0553800000 7.1233400000 12.6016000000 -1.3225960000 0.1566530000 1.5612770000
C 0.0103500000 5.3928300000 15.2046000000 -0.5838730000 -0.1623440000 -0.1080210000
C -0.0489500000 5.3614900000 10.1392000000 -0.2268780000 -0.1552750000 -0.5706580000
144
lattice="9.2642450220 0.0000000000 0.0000000000 -4.6321225110 8.0230715360 0.0000000000 0.0000000000 0.0000000000 20.2192890090" Properties=species:S:1:pos:R:3:force:R:3 energy=-1115.7642108100 virial="-20.5198368451 1.5931771447 -1.0529881594 1.5931771447 -18.7892135005 4.4715273792 -1.0529881594 4.4715273792 -12.1344555268"
Si 7.7863700000 0.9899500000 9.5566900000 -0.8654770000 -2.4526270000 -0.8131410000
Si 6.2993100000 1.7645500000 4.3901100000 -2.1403900000 0.1121780000 1.3535580000
Si 1.5497800000 7.9720800000 7.0005400000 -0.0557020000 0.2247620000 -0.3150220000
Si 1.4503900000 7.9529100000 1.9469600000 1.3407880000 1.4012710000 -0.4575450000
Si 7.7458600000 0.8842400000 19.6184000000 -1.3169060000 -0.2401620000 1.0304460000
Si 6.1988200000 1.7887400000 14.4854000000 0.1763670000 0.1190180000 0.5068960000
Si 1.5248500000 7.9985600000 17.0804000000 0.7297470000 1.3213290000 -0.1137300000
Si 1.6428400000 7.9791400000 12.0121000000 -2.5690530000 0.4130650000 0.0779640000
Si 6.1719300000 3.5855300000 9.4288000000 0.1367520000 0.3462170000 2.3922080000
Si 4.5740200000 4.4456200000 4.3770600000 0.7327040000 0.2432350000 2.4088140000
Si 4.7400100000 2.5962000000 6.9690900000 -1.8081890000 0.5725370000 -0.7384960000
Si 4.5868100000 2.6142100000 1.9453300000 2.3044150000 1.5070700000 -1.2430000000
Si 6.0623900000 3.5800700000 19.5567000000 2.4397680000 -0.3967110000 1.6591450000
Si 4.5907700000 4.4942900000 14.4982000000 1.4575510000 1.0786550000 0.2152290000
Si 4.6646100000 2.6656600000 17.0671000000 -0.6789240000 -0.2116560000 -0.0690600000
Si 4.7556400000 2.7878200000 12.0788000000 -1.4310610000 -2.5165930000 -2.4584590000
Si 4.5809100000 6.3276600000 9.4189700000 1.5046660000 -2.6037120000 1.5085340000
Si 3.1277200000 7.1009800000 4.3558900000 -0.8857020000 -0.6733720000 2.7139770000
Si 3.0483200000 5.3342600000 7.0767500000 0.8834770000 -0.1782660000 -2.0562460000
Si 3.0746900000 5.3992300000 1.8660400000 -0.7281200000 -0.8048940000 0.9650630000
Si 4.6255700000 6.2710900000 19.6630000000 0.2410070000 0.6441770000 -0.8249790000
Si 3.0205300000 7.1240200000 14.5991000000 1.6877830000 -0.8086440000 -0.3543260000
Si 3.0613200000 5.3214400000 17.1880000000 1.1615230000 0.5103700000 -1.8105670000
Si 2.9512500000 5.3346200000 11.9594000000 1.4633740000 -0.4306740000 1.2204440000
Si 1.5791800000 0.9602500000 9.4698500000 -0.5967830000 -0.7628920000 0.5558550000
Si 0.0766200000 1.7474000000 4.4419300000 -1.8060040000 0.1825540000 0.1224510000
Si 0.0421200000 0.0763200000 6.8963900000 -0.9394730000 -1.5232070000 1.3533300000
Si 0.0416500000 0.0314000000 1.9729300000 -0.7608730000 0.0085160000 -1.1924920000
Si 1.5929400000 0.9657800000 19.6080000000 -1.0267470000 -1.5473720000 -0.4112850000
Si 0.0689700000 1.8086800000 14.6201000000 -1.3513190000 -1.1199400000 -0.7352170000
Si 4.6026900000 7.9575500000 17.2206000000 1.7940480000 0.7689850000 -1.9094380000
Si -0.0279700000 0.1056300000 12.0783000000 0.6434100000 -2.1049040000 -0.8262870000
Si -0.0042400000 3.5275900000 9.5072000000 0.7092390000 1.6450290000 -0.7316670000
Si -1.5301800000 4.4835400000 4.3599000000 0.4444180000 -0.1273710000 1.2276520000
Si 7.7008000000 2.6300800000 7.0376500000 1.1221300000 1.6237740000 -1.3181510000
Si -1.5424800000 2.6943100000 1.8491100000 -0.2814150000 -0.8849910000 1.9546700000
Si -0.0343000000 3.5917800000 19.5167000000 0.5540740000 -1.6864140000 0.6998740000
Si -1.5579800000 4.4124800000 14.5766000000 0.0843850000 2.0790260000 0.5522020000
Si 7.6786200000 2.6238100000 17.1146000000 1.0576210000 0.7453600000 -0.9205650000
Si -1.5362600000 2.7172700000 12.0711000000 1.1761850000 0.7294270000 -0.9875370000
Si -1.4985400000 6.2435700000 9.6115300000 -0.6222980000 -0.0662710000 -0.3915330000
Si -3.0841500000 7.0242100000 4.4556100000 0.5932620000 1.5636620000 0.7802220000
Si -3.1115000000 5.4006100000 6.9764600000 0.9298600000 -0.8728080000 1.0991320000
Si 6.1275300000 5.3571800000 1.8774200000 0.0983890000 -0.5545970000 0.5542870000
Si -1.5858300000 6.2747100000 19.6574000000 0.4175090000 -1.1647650000 -2.3853950000
Si -3.1292800000 7.1943800000 14.5917000000 0.8905310000 -1.3107260000 1.3232570000
Si 6.1139100000 5.3677300000 17.1757000000 1.1855760000 -1.9144640000 -2.3383290000
Si 6.1065700000 5.4566200000 12.0599000000 1.0778170000 -0.5181520000 -0.1868060000
Si 4.7038600000 0.8490300000 9.4881400000 -1.7521510000 0.2785240000 1.2224160000
Si 3.0916800000 1.9302400000 4.3601700000 0.0813550000 -2.6532440000 0.4317770000
Si 3.1123400000 0.0486100000 6.9376500000 -0.4956790000 -1.4025640000 0.2524380000
Si 2.9996500000 0.0295000000 1.9901600000 0.5808790000 -0.2201090000 -1.6376440000
Si 4.5638900000 0.8198000000 19.6087000000 1.8217650000 0.6847910000 0.5069240000
Si 3.1684700000 1.8558500000 14.5388000000 -0.7371630000 -0.9623410000 -0.3885180000
Si -1.6107700000 7.9932400000 17.0492000000 1.7754940000 -0.6370190000 0.4701080000
Si 3.0987700000 0.0388000000 12.0628000000 -0.4148740000 -0.8404560000 -0.4575750000
Si 3.1370900000 3.5511100000 9.3826600000 0.0686040000 -0.3564920000 2.9845370000
Si 1.4798000000 4.5701000000 4.4085100000 0.6142520000 -0.9789230000 -0.2188260000
Si 1.6525700000 2.6327500000 6.8463600000 -1.1570850000 1.1125100000 0.6075260000
Si 1.5277900000 2.6873400000 1.8656000000 0.1980520000 0.5576830000 0.9564660000
Si 3.2047700000 3.6022800000 19.6723000000 -1.1460470000 -1.9965450000 -0.8938410000
Si 1.6442300000 4.4275800000 14.5483000000 -1.6434010000 0.2107610000 0.6366690000
Si 1.5677200000 2.7159700000 17.0810000000 1.1438350000 -1.9526850000 0.2197440000
Si 1.5928900000 2.7190900000 11.9620000000 0.4603280000 -0.4238920000 2.5963780000
Si 1.5385600000 6.2098800000 9.4847400000 0.4472060000 0.1369090000 1.3983100000
Si 0.0243700000 7.1528000000 4.4281000000 -1.3071450000 1.1734440000 0.0079840000
Si -0.1052500000 5.4325300000 6.9838300000 1.3586250000 -1.3278630000 0.1725180000
Si -0.1184300000 5.4526500000 1.7636500000 1.7248310000 -1.5132000000 2.4985750000
Si 1.6312000000 6.1200000000 19.5389000000 -3.0262020000 2.6786330000 0.4841820000
Si 0.0644600000 7.1388300000 14.5857000000 -2.3262120000 -0.5997450000 -0.0404330000
Si 0.1077100000 5.2840900000 16.9798000000 -2.7447560000 1.3429690000 0.6341670000
Si -0.1776400000 5.3657800000 12.0717000000 4.1605340000 0.7565390000 0.2176710000
C 7.7173600000 0.8732100000 7.6001600000 0.2857840000 0.1146190000 0.3518370000
C 6.1305800000 1.7729700000 2.5679900000 1.2105620000 -0.3367330000 -1.2561090000
C 1.5561100000 7.9689300000 5.0782300000 0.9122270000 1.0459390000 -0.3790060000
C 1.5127500000 7.9957700000 0.0723000000 0.4563720000 -1.0224160000 -1.0450200000
C 7.7751700000 0.8435100000 17.7447000000 -1.7787460000 0.6470310000 0.0710410000
C 6.2694600000 1.7952500000 12.5903000000 -0.9303940000 -0.7285260000 1.0927390000
C 1.5308100000 8.0151300000 15.1780000000 0.4029220000 1.3367210000 0.6552890000
C 1.5218500000 7.9947200000 10.1302000000 1.9034090000 -0.1089050000 0.2389950000
C 6.1481900000 3.5699900000 7.6251300000 1.3186500000 0.4439270000 -1.3697570000
C 4.5678300000 4.4350700000 2.5605700000 0.4644350000 0.3855990000 -1.8070790000
C 4.5997600000 2.6992800000 5.0147900000 1.9747630000 -0.6465840000 1.0719090000
C 4.6866100000 2.6371300000 0.0143300000 -1.3787100000 -0.2788930000 1.1007200000
C 6.1512100000 3.5257400000 17.7552000000 0.3755220000 0.4487040000 -1.1349530000
C 4.6264400000 4.5165800000 12.5685000000 -1.1969800000 0.2926050000 1.6131750000
C 4.6931500000 2.7838700000 15.1038000000 -0.3007540000 -2.0878770000 1.2771320000
C 4.7179400000 2.6072100000 10.0590000000 -0.9822530000 1.4262970000 1.1607420000
C 4.6448000000 6.2625000000 7.5825600000 -1.0333920000 0.5120930000 -0.5129830000
C 3.1544200000 7.1562200000 2.5479300000 -1.5875230000 -0.4131470000 -1.1624390000
C 3.0581700000 5.2883400000 5.1086000000 0.2639080000 1.2572600000 -0.3350000000
C 3.1139400000 5.3381700000 20.1743600000 0.6337040000 0.2900180000 1.6036030000
C 4.6732300000 6.2148700000 17.7832000000 -2.3320310000 0.2514360000 0.6350000000
C 3.0872900000 7.0674500000 12.6649000000 0.3056440000 1.0800800000 0.3796390000
C 3.1179800000 5.3123300000 15.2414000000 -0.6483770000 0.7556670000 0.1544040000
C 3.1272500000 5.3330200000 10.1398000000 -0.6863010000 0.1355190000 -1.9190150000
C 1.5808400000 0.8784200000 7.5477800000 -0.3237260000 1.1865570000 0.1760460000
C 0.0161700000 1.7687300000 2.5831800000 -0.1778380000 0.7561070000 -1.2088940000
C 4.6373700000 7.9354800000 5.0732700000 0.4613230000 1.2335870000 -0.8415560000
C 0.0049700000 0.0110600000 0.0446000000 0.5509330000 0.5681250000 0.3830450000
C 1.5841000000 0.8767400000 17.7339000000 -1.1929810000 0.7535850000 -0.0944520000
C 0.0530500000 1.8582800000 12.6086000000 -0.5707610000 -0.2821580000 1.3798260000
C 4.5906000000 7.9462400000 15.2973000000 -0.1426780000 1.6614270000 -0.5639450000
C 4.6655300000 7.9513500000 10.1066000000 -0.2906970000 3.7666550000 1.1834210000
C 0.1111300000 3.5738900000 7.5283100000 -1.5966140000 -0.2476330000 0.7881620000
C -1.5257400000 4.4760800000 2.4573200000 -1.4655550000 0.0534870000 0.4372900000
C -1.5395800000 2.7215900000 5.0894200000 1.0937370000 -0.8413280000 -0.2264990000
C 7.6754200000 2.6451400000 0.0598500000 0.5674570000 0.9384330000 -2.6767850000
C 0.0813400000 3.5795700000 17.5879000000 -2.0515490000 -0.9536650000 2.0716610000
C -1.5348300000 4.4961500000 12.7043000000 -3.2237780000 -1.1675170000 0.2308160000
C 7.7100700000 2.6895700000 15.1707000000 0.4526810000 -1.3894470000 0.8814800000
C -1.5344500000 2.7207300000 10.1373000000 -0.1874850000 0.0986620000 0.2634660000
C -1.5683900000 6.3098800000 7.7430500000 -0.2217810000 -0.7476430000 -2.2165280000
C -3.1088700000 7.1329900000 2.5877600000 -0.1514250000 -0.7795680000 -0.4546750000
C -3.0417100000 5.2998000000 5.1422200000 -0.9132020000 0.1285170000 -1.9048200000
C 6.1175800000 5.3860800000 20.2086000000 0.5922530000 -0.9429940000 0.9921680000
C -1.5854900000 6.0987700000 17.6607000000 1.8329760000 2.2333900000 1.0657960000
C -3.1442300000 7.1897400000 12.7761000000 0.4200350000 0.5708930000 -2.0793770000
C 6.1330700000 5.3153700000 15.2474000000 0.5809540000 0.9108710000 -0.6212540000
C -3.0584900000 5.3603300000 10.1970000000 -0.6900330000 0.2263300000 -1.2296370000
C 4.5958800000 0.8138100000 7.6640600000 1.8644660000 1.0408940000 -1.8504620000
C 3.1524000000 1.7705400000 2.4801000000 -3.0635770000 0.4441170000 0.9471470000
C 3.0748600000 0.0463700000 5.0592900000 0.1652040000 -0.0004360000 -0.4941700000
C -1.5967200000 8.0209500000 20.2172500000 0.2514250000 -0.0983430000 1.6109230000
C 4.7040100000 0.8631400000 17.7712000000 -1.8038260000 0.2722830000 -1.6565540000
C 3.1822000000 1.7562900000 12.6135000000 -0.4153910000 2.5891290000 0.7188010000
C 3.1148800000 0.0883300000 15.1843000000 -0.0090420000 -1.0046750000 0.1920850000
C 3.0497300000 0.0153100000 10.1102000000 1.3248860000 0.2892060000 1.2130300000
C 3.1530800000 3.5128700000 7.5870100000 -0.1221210000 0.0915200000 -1.4066430000
C 1.4414200000 4.5198500000 2.4994200000 0.8333970000 0.4248210000 -0.6163570000
C 1.5355200000 2.7246900000 4.9113800000 0.4234270000 0.4372430000 1.8617690000
C 1.6559500000 2.6616600000 0.0142500000 -1.5888980000 1.6467110000 -0.1756360000
C 3.1040900000 3.5711800000 17.7859000000 0.2994860000 -0.3974380000 -0.7528320000
C 1.4639100000 4.4356300000 12.7261000000 0.7468590000 0.5544030000 -1.6856840000
C 1.5735900000 2.6531200000 15.2207000000 1.0784750000 0.6851640000 -0.3490820000
C 1.5244500000 2.7626600000 10.1996000000 1.2241080000 -1.3746150000 -3.1757310000
C 1.5215200000 6.2147900000 7.6513800000 -0.3420220000 0.0624400000 -0.8215840000
C -0.1373400000 7.1606800000 2.5259100000 1.5033000000 -0.5876010000 0.1673370000
C 0.0110200000 5.4677700000 5.0717200000 -1.2482040000 -1.6369740000 0.2625520000
C -0.0217000000 5.2743200000 20.2057000000 0.2326060000 1.8426540000 -1.4695870000
C 1.5018700000 6.2841900000 17.6292000000 1.3796480000 -1.7442060000 1.6428720000
C -0.0644100000 7.1192500000 12.7525000000 1.3053550000 0.4770890000 -1.8507130000
C 0.0672800000 5.3344200000 15.1696000000 -0.3664240000 -0.1932680000 -0.6163240000
C 0.0776100000 5.3212900000 10.2357000000 -1.5368110000 0.2130600000 -1.2622650000
144
lattice="9.2642450220 0.0000000000 0.0000000000 -4.6321225110 8.0230715360 0.0000000000 0.0000000000 0.0000000000 20.2192890090" Properties=species:S:1:pos:R:3:force:R:3 energy=-1115.4031671000 virial="-11.5402091846 1.2351116437 1.3779795254 1.2351116437 -25.5277542803 -3.2919739039 1.3779795254 -3.2919739039 -15.2447280496"
Si 7.6343800000 0.9997300000 9.5347000000 1.8045030000 -0.1862840000 0.0394110000
Si 6.1030300000 1.7560300000 4.4164800000 1.5723700000 -0.4639860000 -0.3280010000
Si 1.5595800000 8.0204400000 6.9313000000 -0.5277380000 -0.0351760000 1.0458560000
Si 6.2102700000 0.0264400000 1.8394400000 -0.4466760000 -0.1602770000 1.3827850000
Si 7.7074700000 0.7726400000 19.5459000000 2.1179270000 3.0641520000 0.2725250000
Si 6.0913200000 1.8000300000 14.5945000000 1.4984880000 -0.6932120000 0.1451740000
Si 1.6513800000 7.9943000000 17.0891000000 -2.6227200000 -0.9730110000 -0.7959830000
Si 6.1727400000 0.0008700000 11.9894000000 -0.0194820000 0.1741760000 1.6313010000
Si 6.0952800000 3.5373700000 9.5233800000 1.0387810000 0.5550540000 0.3173100000
Si 4.6013800000 4.4047100000 4.3018400000 0.5398430000 1.2286730000 2.1752160000
Si 4.6090300000 2.6319700000 6.9587100000 1.0950030000 -0.5454770000 -1.0041190000
Si 4.6760900000 2.7037800000 1.9331900000 -1.4742250000 -0.3506550000 -1.3383340000
Si 6.2177000000 3.4992000000 19.6323000000 -1.0216160000 1.3590320000 -1.0951930000
Si 4.6721700000 4.3685100000 14.5803000000 -1.1206880000 1.4145810000 0.8146080000
Si 4.7549600000 2.6616900000 17.2496000000 -1.6602860000 1.4686930000 -2.1356840000
Si 4.5324000000 2.6175400000 12.0654000000 0.4067450000 0.6240010000 0.5152980000
Si 4.5590600000 6.2012000000 9.5098600000 0.1697530000 1.6035490000 0.2639450000
Si 3.0812700000 7.1287500000 4.4228000000 0.4211810000 0.7637810000 -0.2937000000
Si 3.1728400000 5.2862900000 6.9784500000 -0.9360020000 0.8698430000 -0.4702650000
Si 3.0162300000 5.3258100000 1.9745200000 2.1292430000 1.1008440000 -1.4647930000
Si 4.6319000000 6.1723400000 19.5495000000 1.2202980000 0.5906620000 -0.0929150000
Si 3.1686000000 7.1369200000 14.5244000000 -0.4610080000 0.3978780000 0.8894360000
Si 3.0236800000 5.3123900000 17.0408000000 1.9203780000 -0.3824960000 -0.2785010000
Si 3.0731100000 5.3203100000 12.1794000000 -0.4559780000 1.8015460000 -2.2521680000
Si 1.4744800000 0.9763000000 9.5118700000 0.8007190000 -1.2924160000 0.2504990000
Si -0.0982000000 1.8529400000 4.5157700000 2.3982430000 -0.7579770000 -1.6099550000
Si 4.6062500000 8.0154500000 7.0152900000 1.9371070000 -0.4900880000 -1.0176070000
Si -0.0057600000 0.0338700000 1.8828600000 -0.1639640000 0.2453270000 0.1282510000
Si 1.3945200000 0.8950300000 19.5691000000 2.9945480000 0.5551530000 -0.6051050000
Si -0.0089500000 1.8755700000 14.5203000000 0.4456370000 -0.0142050000 1.3220460000
Si 0.0601600000 0.0353500000 16.9654000000 -1.6729320000 -0.7622010000 2.0898500000
Si 9.2268500000 0.0297400000 11.9956000000 1.3057420000 0.3435760000 1.4731340000
Si 0.0273400000 3.6258700000 9.4369200000 -0.5770610000 -0.4918940000 4.1925910000
Si -1.5028200000 4.4722000000 4.4495500000 -0.9507740000 0.4479140000 -0.0039720000
Si -1.4276600000 2.6771600000 6.9935200000 -2.8195000000 -1.2039870000 0.4044010000
Si -1.5182600000 2.7205700000 1.9641100000 -0.9801520000 0.1225610000 -1.5795770000
Si -0.0109900000 3.5484500000 19.6387000000 -0.9362370000 1.3399000000 -1.2322350000
Si -1.5689400000 4.6081300000 14.4742000000 1.0222750000 -1.7069060000 0.1775450000
Si -1.4964500000 2.7256600000 16.9976000000 -1.5268150000 -0.3134920000 1.1389790000
Si 7.6658600000 2.6483900000 12.1381000000 0.8401550000 0.9455790000 -0.3608190000
Si -1.5879100000 6.2242200000 9.4673000000 -0.0555750000 0.1959090000 -0.2382130000
Si -3.1316900000 7.1436500000 4.3936200000 0.3040930000 -0.2452950000 -0.5687010000
Si 6.2156500000 5.2688600000 6.9215600000 -0.8581290000 0.5392850000 0.1967110000
Si -3.0665000000 5.4283900000 1.8531500000 -0.3635180000 -0.6497110000 0.5213000000
Si -1.4735000000 6.2563800000 19.7022000000 -0.8306760000 1.0302820000 -0.0436450000
Si -3.0671100000 7.1383200000 14.6355000000 -1.6948370000 -0.2923280000 -2.8957980000
Si -3.0139100000 5.4317900000 17.0401000000 -1.1781180000 -0.0442280000 1.1718480000
Si -3.0706500000 5.3195700000 11.9766000000 -0.6081140000 0.2334900000 1.0615830000
Si 4.5259800000 0.9377700000 9.4663200000 1.0253590000 -1.2753140000 0.8022270000
Si 3.0494400000 1.8588200000 4.3760600000 0.0113310000 -1.0690270000 1.4473030000
Si -1.5593400000 7.9154600000 6.8423800000 0.4468980000 1.2709120000 1.3650420000
Si 3.1285700000 0.0809100000 1.8008500000 -0.5115320000 -0.5041900000 3.2793130000
Si 4.7387800000 0.9151100000 19.6335000000 -2.4861780000 -0.4908260000 -0.6587020000
Si 3.0296500000 1.7243700000 14.6075000000 0.1981010000 0.2278610000 0.8631850000
Si -1.4351200000 7.9258000000 17.2555000000 -1.6589020000 4.2204270000 -2.6057390000
Si -1.6011500000 7.8847500000 12.0027000000 1.5600920000 2.0619790000 -0.2430020000
Si 3.0901400000 3.6012300000 9.5490800000 0.1334000000 0.0596110000 -1.0990180000
Si 1.6489200000 4.4898400000 4.3466900000 -2.4800920000 -0.4849190000 2.6017600000
Si 1.5479500000 2.6368200000 6.9180800000 1.0729160000 -0.4755650000 2.2162210000
Si 1.5074200000 2.6631800000 1.8723900000 1.3028160000 -0.4388260000 0.1865900000
Si 2.9939100000 3.5634900000 19.6235000000 2.0254880000 0.1805210000 -0.7935840000
Si 1.5411400000 4.5243100000 14.5112000000 0.2224280000 -0.5690670000 0.0094220000