144
lattice="9.2642450220 0.0000000000 0.0000000000 -4.6321225110 8.0230715360 0.0000000000 0.0000000000 0.0000000000 20.2192890090" Properties=species:S:1:pos:R:3:force:R:3 energy=-1121.2609085700 virial="-27.7300545619 -1.4366143575 -0.7731055613 -1.4366143575 -28.2875404005 -2.1652583759 -0.7731055613 -2.1652583759 -19.4303695844"
Si 7.7927400000 0.9467700000 9.4985400000 -0.8049750000 -1.5742520000 -0.5966450000
Si 6.2463900000 1.6400200000 4.4251900000 -0.7921260000 2.2452510000 0.2424580000
Si 6.2277900000 0.0147800000 7.0190900000 0.1066720000 0.4423700000 -0.8665470000
Si 6.1759700000 0.0716300000 1.9105200000 -0.2529380000 -0.9432500000 -0.1778600000
Si 7.6795300000 0.9730700000 19.6358000000 0.9439790000 -1.5934890000 -0.1772690000
Si 6.1434700000 1.7633600000 14.6050000000 -0.4180910000 0.1011670000 -0.5826200000
Si 6.1469600000 0.0083300000 17.1545000000 0.2194270000 -0.2710720000 -0.6674960000
Si 1.5175300000 8.0150900000 12.0733000000 -0.1305650000 0.6065850000 -0.3484700000
Si 6.1601400000 3.5567000000 9.4931500000 0.1894280000 1.0871030000 0.1319910000
Si 4.6563900000 4.3921300000 4.3686700000 -0.2057700000 0.5195130000 -0.2122370000
Si 4.5413100000 2.7296400000 6.8687100000 1.7619560000 -1.1354290000 0.8807620000
Si 4.6091400000 2.6416600000 1.8626600000 0.0933760000 0.6461910000 1.2809760000
Si 6.1703900000 3.5892600000 19.5859000000 0.1254870000 -0.1398190000 0.7247940000
Si 4.6220500000 4.4169700000 14.6074000000 -0.2202820000 0.3443440000 -0.3631230000
Si 4.5467400000 2.6603900000 17.1338000000 1.8429130000 -0.2788720000 -1.1328280000
Si 4.6339700000 2.6861100000 12.0942000000 -0.1867830000 0.1593160000 0.0103920000
Si 4.6996500000 6.3212300000 9.4463700000 -0.6558750000 -1.1045720000 0.1225060000
Si 3.1269000000 6.9918900000 4.3407000000 -0.5973920000 1.9817660000 1.3830320000
Si 3.1240800000 5.3161300000 6.9881200000 -0.1505820000 0.6539030000 -0.4495110000
Si 3.0891700000 5.3925500000 1.8343000000 -0.0436930000 -0.7243140000 0.8372840000
Si 4.6828000000 6.2507600000 19.5812000000 -0.5153250000 0.2263090000 0.6239470000
Si 3.0612500000 7.1759900000 14.5012000000 0.3948490000 -0.5199210000 1.9611460000
Si 3.0646100000 5.3903300000 17.0533000000 0.7280720000 -1.1799770000 -0.1676150000
Si 3.1099800000 5.3388700000 12.0473000000 -0.4913610000 0.7230890000 0.5754510000
Si 1.5055000000 1.0047600000 9.4587400000 1.7971350000 -1.3473730000 0.6206350000
Si 0.0330700000 1.7723100000 4.4013600000 -0.5318660000 0.2776430000 -0.1450890000
Si -4.5198900000 8.0223800000 6.8885200000 -1.9616830000 0.2534030000 0.4692870000
Si 4.6303300000 7.9987100000 1.9133900000 0.7073350000 1.5575740000 0.9428890000
Si 1.5187600000 0.8348200000 19.6226000000 0.6236700000 1.0503030000 0.4811570000
Si 0.0060900000 1.7884900000 14.5582000000 -0.3080260000 -0.5603960000 0.0222570000
Si 9.2413100000 0.0269400000 17.0705000000 0.4425410000 -1.0369470000 0.5699750000
Si 0.0577800000 0.0391200000 12.0189000000 -0.7073660000 -0.2202320000 -0.0023140000
Si -0.0453100000 3.5958700000 9.5616000000 1.3420990000 0.9093000000 -0.1638970000
Si -1.5546600000 4.3927200000 4.3860300000 0.4781410000 1.5933410000 0.8562640000
Si -1.5743300000 2.7582200000 6.9436600000 0.7690620000 -0.9246670000 -0.1172860000
Si 7.7020000000 2.7056300000 1.9058900000 0.5196950000 -0.3313980000 1.4415470000
Si 0.0022500000 3.5363200000 19.5520000000 -0.4180980000 0.4621580000 0.9623070000
Si -1.5509900000 4.5239600000 14.5515000000 -0.4917110000 -0.9293300000 0.2603260000
Si 7.6848100000 2.6969300000 17.0469000000 0.4401060000 -0.8354370000 -0.8053650000
Si 7.6556200000 2.7196100000 12.0357000000 1.3755910000 -0.4647260000 0.8053720000
Si -1.5693800000 6.2865900000 9.4765200000 1.1467020000 -0.3289140000 0.3007680000
Si -3.0859700000 7.2188200000 4.3883300000 0.3216470000 -1.6064400000 0.3647790000
Si 6.1909200000 5.3220200000 6.8719900000 -0.2348580000 0.6681630000 0.5636540000
Si -3.0913700000 5.3748800000 1.9290500000 0.7073230000 -1.0044120000 -0.1200760000
Si -1.4862400000 6.2665600000 19.6937000000 -0.1355290000 -0.4679740000 -1.3961740000
Si -3.1027100000 7.0780800000 14.5697000000 0.1066080000 1.2943570000 0.2315700000
Si 6.2026900000 5.2816800000 17.1526000000 -0.6526150000 2.3710180000 -1.6183620000
Si 6.1358600000 5.3315800000 12.0165000000 0.3968910000 1.6378520000 -0.0239200000
Si 4.6701700000 0.8748100000 9.4652200000 -0.1940620000 0.3361050000 0.7335810000
Si 3.1140000000 1.7870800000 4.3438200000 -0.6256660000 -0.4428240000 1.8605750000
Si -1.5378100000 7.9945400000 6.9207800000 1.2425490000 -0.3057650000 1.2999610000
Si -1.5408600000 7.9886400000 1.9260900000 0.2307690000 0.6159290000 -1.0661450000
Si 4.6859600000 0.9569800000 19.6153000000 -0.6893110000 -0.9323940000 1.0063180000
Si 2.9886900000 1.7231700000 14.6285000000 1.6286630000 0.4508690000 -0.8176740000
Si 3.1037800000 0.0321700000 17.1802000000 -1.1809980000 -0.3694200000 -0.1865960000
Si 3.0753300000 0.1234900000 12.0196000000 -0.9845470000 -1.3867810000 -0.9759970000
Si 3.1399400000 3.5516200000 9.5592600000 -0.3905570000 0.7244170000 -0.0820730000
Si 1.5538600000 4.4329700000 4.4944800000 -0.3383390000 0.4518150000 -1.3910700000
Si 1.5589000000 2.6566700000 6.9369200000 -0.4443760000 0.0519500000 0.8448030000
Si 1.6308500000 2.6943300000 1.8677800000 -2.3817670000 0.0069900000 1.0975500000
Si 3.0991700000 3.5699800000 19.6636000000 -0.7298960000 0.3893850000 -1.3508000000
Si 1.4575000000 4.4355800000 14.6095000000 1.6174460000 0.6372460000 -0.5837340000
Si 1.5561500000 2.6643600000 17.1118000000 -0.3430170000 -0.0682590000 -0.1690520000
Si 1.5167400000 2.7135000000 12.0267000000 0.4178910000 0.1517200000 0.8595200000
Si 1.6312500000 6.2020200000 9.4843800000 -0.8197570000 0.4984030000 1.3091030000
Si -0.0190800000 7.1007400000 4.3914700000 0.7644550000 1.2103450000 0.2972500000
Si 0.0464900000 5.2964100000 6.9591800000 0.0080290000 1.5275440000 0.3779260000
Si 0.0387400000 5.3002400000 1.9480600000 0.0632470000 0.5673410000 -1.2715490000
Si 1.5675200000 6.2661500000 19.5324000000 -0.1973190000 -0.4004580000 1.6608790000
Si -0.0264200000 7.2174100000 14.5863000000 -0.5714530000 -0.5571410000 0.3573870000
Si -0.0265100000 5.3480200000 17.0768000000 -0.3695240000 0.5812930000 0.4807500000
Si -0.0560900000 5.3608700000 12.0712000000 0.5923110000 1.4181810000 -0.2880350000
C 7.7916800000 0.9762100000 7.5288400000 -0.0194040000 -0.9139280000 0.8774200000
C 6.1225900000 1.8282800000 2.5604200000 1.0881320000 -0.7832390000 -0.5803330000
C 1.5699500000 7.9849500000 5.0894700000 0.2151950000 -1.5111610000 -0.5253550000
C 6.1812700000 0.0294800000 0.0355700000 0.0852050000 -0.0895170000 -0.6151980000
C 7.7109700000 0.9043500000 17.7057000000 -0.3073530000 0.2990440000 0.6344950000
C 6.1693200000 1.8179700000 12.7046000000 -0.2551960000 -0.7999640000 -0.2940370000
C 6.1148400000 0.0096800000 15.2702000000 1.1218790000 0.0606980000 -0.7465740000
C 1.5844700000 7.9902400000 10.1780000000 0.1528790000 0.6409870000 -0.9872190000
C 6.1389600000 3.5982700000 7.5724400000 -0.4005700000 -0.5872110000 -0.3681130000
C 4.6492800000 4.4268000000 2.4573400000 -0.7221560000 0.6405110000 0.5476220000
C 4.6336000000 2.6213500000 4.9671000000 0.7403750000 0.2819720000 1.0018000000
C 4.6220900000 2.6908200000 0.0399300000 0.4769330000 0.2213000000 -0.8501730000
C 6.1633500000 3.5689900000 17.6905000000 -0.2054380000 -1.2799610000 0.8185280000
C 4.6398500000 4.4831100000 12.7048000000 -0.3171590000 -0.6939160000 -0.1470850000
C 4.6006100000 2.6350900000 15.2245000000 -0.4718700000 0.0261530000 0.2497180000
C 4.6444700000 2.6901900000 10.2157000000 0.4827170000 -0.7457900000 -0.9371130000
C 4.6443000000 6.2429400000 7.5370000000 0.6962220000 0.1954510000 0.1397880000
C 3.0966500000 7.1667200000 2.4617200000 -0.4992070000 -0.8020230000 0.9315070000
C 3.1064500000 5.2705600000 5.0548500000 0.5501900000 -0.0295610000 0.3700380000
C 3.1185600000 5.3954000000 20.1996000000 -0.2652270000 -0.5352990000 -0.1870960000
C 4.6274900000 6.1784100000 17.7106000000 0.1911370000 1.3672950000 -0.0939710000
C 3.1016300000 7.1768400000 12.6718000000 -0.1213920000 -0.3551760000 -0.9605250000
C 3.0868100000 5.3464900000 15.1596000000 -0.7870370000 0.2595360000 0.3773060000
C 3.1846400000 5.3659200000 10.1751000000 -0.3893470000 -0.1785250000 -0.7980580000
C 1.6045600000 0.8573200000 7.6017500000 -0.4325200000 0.9801980000 -0.9977020000
C 0.0080800000 1.8183100000 2.5486300000 0.2419040000 -0.5241560000 -1.0705800000
C 0.0084900000 0.0131700000 4.9905600000 -0.1294610000 -0.6717490000 0.4735170000
C -0.0092200000 0.0177800000 0.1183900000 -0.0851400000 -0.2790500000 -2.6865220000
C 1.5038700000 0.8993500000 17.7452000000 0.3284930000 -0.1355690000 0.0898040000
C 0.0494600000 1.7990600000 12.6860000000 -1.3113400000 0.2946170000 -0.8037530000
C 0.0217800000 0.0177700000 15.2290000000 -0.7732980000 -0.3170360000 -1.1224890000
C 0.0817600000 0.0209200000 10.0829000000 -1.1769120000 0.9351070000 0.8309530000
C 0.0073300000 3.5929100000 7.6784600000 0.2031710000 -0.9142660000 -1.4828100000
C -1.4855200000 4.4711000000 2.5595300000 -1.2864670000 -0.1228130000 -1.1049140000
C -1.4993000000 2.6544700000 5.0023900000 -0.7282550000 -0.0267380000 1.1789380000
C 7.6626700000 2.6731300000 0.0946300000 0.7210980000 0.9832570000 -2.0689280000
C -0.0141900000 3.5547500000 17.6518000000 -0.1940650000 0.0928010000 0.5765070000
C -1.5878300000 4.5304800000 12.6676000000 0.1506130000 -1.1499690000 -0.2025570000
C 7.6835400000 2.6272000000 15.0779000000 0.7224360000 1.7101920000 2.0415050000
C -1.5083800000 2.6587700000 10.1459000000 -1.2859950000 0.9599160000 0.3640980000
C -1.5308200000 6.1419700000 7.5896000000 0.1642550000 1.4746430000 -0.7486260000
C -3.0620700000 7.1306000000 2.5272300000 -0.6220630000 0.2230330000 -0.2250180000
C 6.1537900000 5.3777300000 4.9628200000 0.5348040000 -0.6063760000 0.6853080000
C -3.0585300000 5.3340900000 0.0467900000 0.1057320000 0.8460770000 -0.3627340000
C -1.5759600000 6.2944600000 17.7029000000 0.7585990000 -1.4596980000 1.4252790000
C -3.0773200000 7.1507700000 12.6459000000 0.0131340000 -0.0708550000 0.4110640000
C 6.1361600000 5.3503600000 15.2000000000 0.6268770000 -0.8892510000 0.7812940000
C -3.0754700000 5.4646000000 10.1306000000 -0.1762520000 -2.3093470000 -0.0086900000
C 4.6630500000 0.9523800000 7.5712700000 -0.3208140000 -0.8108850000 -0.3362730000
C 3.0637100000 1.7594200000 2.5371300000 0.8454640000 -0.1581850000 -1.2763450000
C -1.5373100000 8.0163900000 5.0694400000 -0.0031740000 0.4853800000 -1.0640870000
C 3.1667200000 0.0470800000 0.0109100000 -1.1870460000 -0.4646290000 0.6994170000
C 4.6161400000 0.8901300000 17.8090000000 0.4822110000 0.4831320000 -1.3269330000
C 3.0591400000 1.8276400000 12.6732000000 -0.1077310000 0.5022470000 0.6684940000
C -1.5638800000 8.0011000000 15.3438000000 -0.4014710000 0.2668880000 -1.9296260000
C 3.0832300000 0.0277500000 10.0680000000 -0.0428560000 1.0371950000 0.6705920000
C 3.0826100000 3.5596200000 7.6586100000 -0.3389380000 0.0529070000 -0.9017060000
C 1.5553000000 4.4647800000 2.5606500000 1.1604830000 -0.1895300000 -0.1328460000
C 1.5348000000 2.6587400000 5.0346200000 0.7595790000 -0.1074050000 0.7779120000
C 1.5208500000 2.6747900000 0.0328200000 0.6879770000 -0.3650840000 -0.9154820000
C 3.1041700000 3.5498100000 17.6967000000 -1.3897430000 1.0312240000 1.1101560000
C 1.5056600000 4.4848900000 12.6988000000 0.0664050000 0.1274910000 -0.2506240000
C 1.5217800000 2.6475400000 15.2237000000 -0.5510490000 0.7248230000 0.3095670000
C 1.5530700000 2.7253400000 10.1810000000 -0.3428840000 0.2011960000 -0.9718960000
C 1.6328700000 6.2585600000 7.6219800000 -0.9579310000 -0.5333650000 -0.5418960000
C 0.0001200000 7.1086600000 2.4671300000 0.4986930000 0.3355790000 1.1343590000
C 0.0326000000 5.4170700000 5.0523600000 -0.5846510000 -2.5208870000 0.5832990000
C 0.0583300000 5.3092400000 0.0018100000 -0.2551490000 0.3854230000 0.3196300000
C 1.5331500000 6.1958600000 17.6963000000 -0.2625300000 1.0941730000 -0.2149690000
C -0.1382300000 7.2555400000 12.7160000000 2.4327530000 -1.6199190000 -0.2651110000
C -0.0044500000 5.4259800000 15.2250000000 -0.5470850000 -0.8944390000 -0.7188270000
C 0.0018600000 5.3958300000 10.1899000000 -0.0273370000 -0.2192720000 -0.7928220000
144
lattice="9.2642450220 0.0000000000 0.0000000000 -4.6321225110 8.0230715360 0.0000000000 0.0000000000 0.0000000000 20.2192890090" Properties=species:S:1:pos:R:3:force:R:3 energy=-1122.3032289200 virial="-25.7298010382 -0.3267266793 0.4289319474 -0.3267266793 -25.6276895709 1.8685104078 0.4289319474 1.8685104078 -27.0632439802"
Si 7.7239000000 0.9167900000 9.5410400000 0.3834860000 -0.8455260000 -0.6059840000
Si 6.1753700000 1.8286000000 4.5103400000 -0.4138060000 -1.0929740000 -1.2304320000
Si 1.6031800000 7.9185100000 6.9912800000 -0.6559210000 1.6575050000 0.8533450000
Si 1.5331500000 7.9593000000 1.9219500000 -0.4396620000 0.9649990000 -0.3537150000
Si 7.7252500000 0.9405500000 19.5731000000 -1.0034790000 -0.5862260000 -0.2334620000
Si 6.1946300000 1.7345900000 14.5784000000 -0.5204660000 1.3669590000 0.1722770000
Si 6.2044000000 0.0303200000 17.0366000000 -0.6562570000 -0.4050410000 0.7384540000
Si 6.2255400000 0.0204300000 11.9766000000 -0.6335530000 -1.4185350000 0.4358520000
Si 6.1269500000 3.5483200000 9.4147400000 0.1219090000 0.3349780000 1.9807530000
Si 4.5834500000 4.4491000000 4.4374800000 0.8553180000 -0.0019920000 -0.4561050000
Si 4.6471300000 2.6763400000 6.9918600000 -0.4187170000 -0.2605080000 -1.0539230000
Si 4.6656900000 2.6994700000 1.9270500000 -0.0939470000 -0.0230810000 0.0517280000
Si 6.1856300000 3.6417900000 19.5686000000 -0.0522640000 -0.5885560000 0.9145160000
Si 4.6758600000 4.4696600000 14.4987000000 -0.4274170000 -0.7192230000 1.6607980000
Si 4.6789900000 2.6591600000 17.1429000000 -1.8780910000 0.3268210000 -1.0450880000
Si 4.6405200000 2.5861100000 12.1239000000 -0.4848040000 0.4111090000 -1.0787450000
Si 4.7128700000 6.1882000000 9.4642100000 -1.0906640000 1.0287930000 0.8830270000
Si 3.0806200000 7.1685700000 4.4474600000 0.1622400000 -0.5491850000 0.0378450000
Si 3.0525700000 5.3371700000 6.9902500000 1.1857300000 -0.1343100000 0.5161330000
Si 3.0539300000 5.3863500000 1.8496100000 0.9446540000 -1.6066850000 0.7372140000
Si 4.5905700000 6.2823800000 19.5916000000 1.0769220000 -0.3856960000 -0.8229120000
Si 3.1351900000 7.1494600000 14.5658000000 -0.0855310000 -0.2465400000 -0.6991100000
Si 3.0971900000 5.3695800000 17.0577000000 -0.1636870000 0.1136280000 -0.3323910000
Si 3.1720000000 5.3765500000 12.0537000000 -0.8495390000 -1.2497220000 -0.6934670000
Si 1.5505800000 0.9256600000 9.4461500000 -0.0512530000 -0.2924140000 1.6688370000
Si -0.0279700000 1.9010400000 4.4983500000 0.0592900000 -1.6027170000 -1.4112150000
Si 0.0021500000 0.0778100000 6.9166800000 -0.4056470000 -1.1310340000 1.5898360000
Si 9.1763700000 0.0073900000 1.9166700000 1.1370440000 1.1192600000 -0.4169880000
Si 1.5463800000 0.8853800000 19.6362000000 0.0256200000 -0.4200100000 -0.3907080000
Si 0.0671300000 1.7572600000 14.5016000000 -1.4512590000 1.0932090000 -0.0279600000
Si 0.0547200000 0.0079900000 17.0504000000 -0.2884320000 -0.1393700000 -0.4860750000
Si 9.2269700000 0.0002500000 11.9225000000 1.6215520000 0.2245170000 1.5034920000
Si -0.0495200000 3.5887100000 9.5399900000 0.6981930000 0.1273380000 0.3606750000
Si -1.4860200000 4.5209100000 4.4501400000 -1.5429850000 -1.1715230000 -0.0842600000
Si 7.6739500000 2.7067300000 7.0210800000 0.5213650000 -0.8796420000 -0.5316790000
Si 7.6821100000 2.6748200000 1.9398900000 0.4942060000 0.2649360000 -0.7530080000
Si -0.0069500000 3.5240200000 19.5611000000 0.8167830000 0.9148620000 0.8732050000
Si -1.5273800000 4.4327900000 14.5207000000 -0.4507630000 0.5021830000 0.9331990000
Si 7.7064600000 2.6587000000 17.0540000000 0.0650210000 0.6975830000 0.2307240000
Si 7.6786200000 2.6816600000 12.0063000000 0.4616190000 -0.3421090000 0.6786680000
Si -1.5541200000 6.2293500000 9.4734800000 -0.3070860000 0.9874040000 0.2925760000
Si -3.1281100000 7.1447200000 4.3948600000 0.3198490000 0.3049340000 0.8493220000
Si 6.1484900000 5.3871100000 6.9290800000 0.1610850000 0.3071550000 -0.1710990000
Si -3.0356200000 5.4168900000 1.9252700000 -0.9295250000 -0.4795740000 0.2020840000
Si -1.5033300000 6.1723600000 19.6505000000 -0.0303310000 0.9200910000 -0.3127130000
Si -3.0732400000 7.1638800000 14.5872000000 0.7860210000 -0.9181140000 -1.6999470000
Si 6.1606600000 5.3335200000 17.0335000000 1.0710990000 0.5439300000 0.1068770000
Si -3.0766700000 5.3439300000 12.0220000000 -0.3089250000 -0.0832820000 -0.1269650000
Si 4.7069200000 0.8862200000 9.4861500000 -1.7560790000 -0.7794100000 0.2478720000
Si 2.9760500000 1.7485100000 4.4599600000 3.0072330000 0.0156630000 -1.5377100000
Si 3.1409700000 0.0662800000 6.9872100000 -0.5683570000 -1.2672950000 -0.8283300000
Si 3.0587300000 0.0452700000 1.9323100000 0.1964850000 -0.0376160000 0.3993060000
Si 4.6177800000 0.9282400000 19.6297000000 0.0614680000 -0.4054570000 -0.2417600000
Si 3.0326100000 1.8272500000 14.6126000000 1.3161030000 -1.3061990000 -0.3215690000
Si -1.5224100000 7.9726000000 17.2018000000 -0.6998390000 0.1544040000 -2.4299610000
Si -1.5612000000 7.9808600000 11.9650000000 -0.0177100000 0.0956770000 1.2489200000
Si 3.1322700000 3.5244100000 9.5310600000 -1.1019350000 0.1738930000 0.2767770000
Si 1.5643600000 4.4842900000 4.4347800000 0.1689230000 -0.5430390000 0.4969850000
Si 1.5193700000 2.6580800000 7.0203700000 0.3615600000 0.7934730000 -0.3775200000
Si 1.5150500000 2.7132800000 1.8986900000 0.4572400000 -0.5122020000 0.1803190000
Si 3.1025600000 3.5877300000 19.5376000000 -0.0695780000 -0.4653300000 0.6125370000
Si 1.5415300000 4.5409700000 14.5273000000 0.0114500000 -0.9551210000 -0.4976770000
Si 1.4693700000 2.6548000000 17.0716000000 1.8372340000 0.9200490000 -0.4528170000
Si 1.5829400000 2.6940400000 12.0443000000 -0.4218260000 -0.7647160000 -0.1242110000
Si 1.5697700000 6.1515700000 9.5358400000 0.2445710000 0.6608270000 -0.2315740000
Si 0.0584500000 7.1233200000 4.4825300000 -0.8867910000 0.0387800000 -0.1121920000
Si -0.0236200000 5.3809400000 7.0419400000 -0.6489800000 -1.2034620000 -1.0763670000
Si 0.0046900000 5.3466000000 1.9185600000 -0.1228890000 -0.0325550000 0.2927290000
Si 1.5803400000 6.2501600000 19.6284000000 -0.6313570000 0.7192010000 -1.1615270000
Si -0.0109700000 7.1680800000 14.5493000000 0.4296160000 0.6582420000 -0.8967000000
Si 0.0633200000 5.3593000000 17.0272000000 -0.6607300000 0.5854250000 0.8223020000
Si -0.0699400000 5.3837900000 12.0330000000 1.2365310000 -0.7854920000 0.1089240000
C 7.6925000000 0.8804200000 7.6699200000 0.6579930000 0.6156470000 -1.2313640000
C 6.2279300000 1.7134400000 2.5574800000 -1.1996390000 0.6956770000 0.4358360000
C 6.2196500000 0.0255300000 5.1617800000 -0.4974540000 -0.3947860000 -1.4329090000
C 6.1528100000 0.0206700000 0.0047000000 0.6429840000 -0.0584100000 0.3439420000
C 7.7504100000 0.8665300000 17.6342000000 -0.0306770000 0.8575140000 1.0459410000
C 6.1948700000 1.7147700000 12.7099000000 0.0755430000 0.8631380000 -0.8895380000
C 6.2313200000 0.0247400000 15.1865000000 -0.5977480000 -1.1809020000 -0.2707990000
C 1.5612700000 7.9782500000 10.0783000000 0.5988060000 0.2139270000 0.8625380000
C 6.1650900000 3.6016300000 7.5719800000 -0.5161210000 0.1679060000 -0.2328600000
C 4.6676600000 4.5115000000 2.5201500000 -0.7433120000 -0.2898640000 0.1063320000
C 4.5912100000 2.6356800000 5.0276400000 -0.3295020000 0.7406470000 1.2330600000
C 4.6819900000 2.7438300000 0.0133000000 -0.8075820000 -0.7119220000 -0.1572660000
C 6.1331200000 3.6168700000 17.7209000000 1.3131380000 -1.0021370000 -0.4284910000
C 4.6848300000 4.4156900000 12.6577000000 -0.5092040000 -0.1354060000 -0.4538670000
C 4.6206200000 2.6560800000 15.2608000000 0.5817310000 0.4165070000 -1.3361860000
C 4.5970600000 2.6160600000 10.1491000000 1.4620740000 0.2119890000 0.4749600000
C 4.6401700000 6.2970100000 7.6360000000 -0.4773910000 -0.5561980000 -1.8818950000
C 3.0871500000 7.0971100000 2.5129200000 -0.7843610000 0.4577570000 0.9356140000
C 3.0877000000 5.3660100000 5.1242000000 -0.1143500000 0.1700690000 -0.7841310000
C 3.0924300000 5.3525300000 20.1795000000 -0.0010590000 0.0911460000 0.6731190000
C 4.6631500000 6.2354000000 17.6015000000 -0.4444460000 0.6344100000 1.6402430000
C 3.1298300000 7.1195100000 12.6323000000 -0.4893210000 0.6539840000 0.2500570000
C 3.0988400000 5.3439200000 15.1616000000 0.3582070000 0.6182850000 -0.1030380000
C 3.1732200000 5.2830200000 10.1433000000 -0.4402140000 0.9162290000 -0.0018690000
C 1.5669800000 0.8645100000 7.6008100000 -0.2579840000 1.0521670000 -0.7409650000
C -0.0317700000 1.8432500000 2.5298700000 0.1510640000 -0.7594800000 0.5055620000
C 9.2307900000 0.0485600000 5.0713000000 0.5402040000 0.2511350000 -0.5549170000
C 9.1967700000 0.0198500000 20.2109800000 0.8682750000 0.1215090000 0.4911640000
C 1.5706400000 0.9154900000 17.6757000000 -0.3251050000 -0.7424710000 1.2578430000
C -0.0071000000 1.8068900000 12.6176000000 -0.0337200000 -0.2860570000 -0.3303660000
C 0.0617900000 0.0278200000 15.1208000000 -0.7909400000 -0.2870320000 1.2669200000
C -4.6028000000 8.0086600000 10.0867000000 -0.4454100000 0.2123470000 -0.3129270000
C -0.0659300000 3.5982600000 7.6617000000 0.8336710000 -0.6436300000 -0.5854920000
C -1.5197500000 4.4584900000 2.5666600000 -0.3701600000 0.3794910000 -0.5269320000
C 7.6782900000 2.6915000000 5.0987000000 0.6803030000 1.2215110000 0.7388390000
C 7.7038600000 2.6973400000 20.2011100000 0.0561960000 0.3232010000 0.4788700000
C 0.0026900000 3.5866600000 17.6775000000 -0.6403850000 -0.2474730000 0.0356030000
C -1.6068000000 4.4211300000 12.6760000000 1.1991520000 0.5535590000 -0.7584740000
C 7.7107800000 2.6672200000 15.1932000000 0.7460540000 -0.0768620000 -0.5889970000
C 7.6678900000 2.7042300000 10.1320000000 0.0177220000 -0.4507330000 -0.0581320000
C -1.5609500000 6.2620600000 7.5932500000 -0.0268550000 0.3700080000 -0.2871840000
C -3.1506000000 7.2147700000 2.5371200000 0.5530060000 -0.5841740000 -0.3961120000
C -3.0867600000 5.3588600000 5.0015300000 -0.3526060000 0.0881480000 1.0270860000
C -3.1056000000 5.3810700000 0.0367600000 0.3300310000 0.2469910000 -0.1731570000
C -1.5052200000 6.2066000000 17.7491000000 -0.3850720000 -0.5612120000 -0.2737640000
C -3.0904400000 7.1003900000 12.6094000000 -0.3899070000 0.5150770000 0.5756300000
C -3.0727200000 5.3671600000 15.1582000000 0.1899610000 -0.3296810000 0.1193830000
C -3.0526300000 5.3260400000 10.1279000000 -0.2142910000 -0.5680670000 -0.2927080000
C 4.6854600000 0.8821200000 7.5963900000 0.2571550000 0.0573080000 -0.0263200000
C 3.0791200000 1.8327900000 2.5277000000 -0.1317210000 -0.1589620000 0.2179230000
C 3.0850400000 0.0061800000 5.0285200000 -0.0254920000 -0.8116740000 1.1605290000
C -1.5448100000 7.9778800000 0.0751100000 0.0142880000 0.5967220000 -1.0117870000
C 4.5890000000 0.8631600000 17.6747000000 1.8101650000 0.8569640000 1.4292080000
C 3.0636400000 1.6796600000 12.6922000000 0.2494400000 1.6078960000 0.0173620000
C -1.5340000000 8.0006800000 15.1890000000 -0.2494690000 0.9687300000 1.1604320000
C -1.5820800000 8.0181500000 10.1444000000 0.9125990000 0.2531000000 -1.7394940000
C 3.1126700000 3.5534400000 7.6619200000 -0.5136270000 -0.1053800000 -1.0518460000
C 1.5167500000 4.4711700000 2.5668300000 0.8111570000 0.3720650000 -0.6281170000
C 1.5834300000 2.6658800000 5.0349000000 -2.0109260000 1.4256640000 1.9793700000
C 1.5813400000 2.6484000000 0.0167700000 -0.5127430000 0.7451550000 -0.4320640000
C 3.0741400000 3.6146500000 17.6595000000 -0.0968930000 -1.1247290000 0.3691710000
C 1.5834800000 4.4591500000 12.5960000000 -0.5849920000 0.9616740000 0.8746120000
C 1.5174700000 2.7123100000 15.1692000000 -0.2140880000 0.4822280000 0.3021690000
C 1.5361000000 2.7060300000 10.1714000000 -0.1077410000 -0.2844650000 -1.0372550000
C 1.5045600000 6.1691100000 7.5916800000 1.0026000000 0.5355080000 1.1614480000
C -0.0409100000 7.1068900000 2.5747700000 0.5194640000 0.4048700000 -0.0511570000
C 0.0200300000 5.2731800000 5.1277600000 0.5191570000 1.8054900000 0.1788450000
C 0.0912700000 5.3560800000 0.0587100000 -1.1980830000 -0.9983140000 -0.6355660000
C 1.5726600000 6.3080800000 17.7030000000 -0.0250260000 -0.9983900000 -0.1441470000
C 0.0230700000 7.1531300000 12.5921000000 -0.1514900000 -0.0185630000 0.9366190000
C -0.0105800000 5.4311400000 15.1484000000 0.2668460000 -1.4174430000 0.0990050000
C -0.0498800000 5.4131500000 10.1516000000 0.7407860000 -1.3452770000 -0.1933820000
144
lattice="9.2642450220 0.0000000000 0.0000000000 -4.6321225110 8.0230715360 0.0000000000 0.0000000000 0.0000000000 20.2192890090" Properties=species:S:1:pos:R:3:force:R:3 energy=-1121.2982327100 virial="-28.7476517084 -0.3613016259 1.3073100605 -0.3613016259 -29.0695851708 -2.6968364549 1.3073100605 -2.6968364549 -17.7167241707"
Si 7.7585500000 0.9136000000 9.4460300000 -0.5418400000 -0.3627040000 0.8282720000
Si 6.0813000000 1.8554700000 4.3588300000 0.5254990000 -0.8719110000 1.7611720000
Si 1.5141000000 8.0025400000 7.0042900000 0.3839170000 -0.2437930000 -1.1498420000
Si 6.1542500000 0.0604700000 1.8841200000 0.3395330000 -0.5017830000 1.6296340000
Si 7.7347100000 0.8984000000 19.5493000000 0.8100780000 0.7804570000 1.4966950000
Si 6.1648300000 1.8438000000 14.4917000000 0.5383660000 -0.6494710000 1.9757940000
Si 6.1732400000 0.0040000000 17.0270000000 0.9732230000 0.0016400000 0.2978640000
Si 1.5231100000 8.0021000000 12.0657000000 0.7869010000 0.1469630000 0.0777410000
Si 6.2467600000 3.6560500000 9.5345900000 -1.2342800000 -0.5990420000 -0.7190300000
Si 4.5817100000 4.4845700000 4.3489900000 0.0733440000 -0.1099890000 2.3325140000
Si 4.6610800000 2.6330800000 6.9104000000 -0.1432730000 0.3291380000 1.7764060000
Si 4.6010700000 2.6684600000 1.8257800000 -0.0199650000 0.1559180000 0.8957960000
Si 6.1547300000 3.5355300000 19.6328000000 0.6579930000 0.8875810000 -0.8147660000
Si 4.6175400000 4.4504200000 14.6634000000 0.7574970000 0.5108170000 -0.6596060000
Si 4.6448700000 2.6405900000 17.0940000000 -0.3017970000 0.7900600000 0.1800930000
Si 4.6065400000 2.6676400000 12.0080000000 0.1773730000 0.4059400000 1.3334150000
Si 4.5434100000 6.2815200000 9.5028700000 1.1337550000 -0.6135740000 0.0688950000
Si 3.0928400000 7.2010800000 4.4603800000 -0.9629560000 -0.7593550000 -0.7438240000
Si 3.0885300000 5.2700500000 6.9122200000 -0.3125880000 1.4951950000 1.0844970000
Si 3.1748400000 5.3405700000 1.9255300000 -3.1915200000 1.1859390000 -0.5862580000
Si 4.6904500000 6.2632000000 19.5933000000 -1.2983530000 0.1853560000 0.3441000000
Si 3.1062200000 7.1654100000 14.5397000000 0.3997400000 -0.8716850000 0.8058010000
Si 3.1218700000 5.3024200000 17.1355000000 0.4762320000 0.4422660000 -0.3744940000
Si 3.0850700000 5.2608300000 12.0417000000 0.4451790000 1.9299960000 0.1137370000
Si 1.5763800000 0.8880900000 9.4964600000 0.4064550000 -0.3595820000 -0.9077760000
Si -0.0475100000 1.7136000000 4.4163900000 -0.3905750000 2.0241440000 0.8698430000
Si 4.6408300000 7.9601000000 7.0392000000 0.3776650000 1.5114540000 -1.9936610000
Si -4.6207700000 8.0120800000 1.8616700000 -0.4190990000 0.0658990000 0.9363660000
Si 1.5653600000 0.9607100000 19.6467000000 0.1600430000 -0.3201420000 -0.9422930000
Si -0.0588100000 1.8349200000 14.5486000000 2.3754430000 -1.6790270000 0.8439560000
Si -4.5827000000 8.0107700000 17.1002000000 -0.1191600000 -0.0735530000 0.2732100000
Si 0.0193500000 0.0124400000 12.0417000000 -0.1216090000 -0.5176930000 0.0849590000
Si 0.0595900000 3.5184900000 9.4636600000 0.1226130000 1.3804350000 0.3213390000
Si -1.5677300000 4.4545700000 4.4289400000 -0.2204740000 -0.2292090000 0.2689220000
Si -1.5124300000 2.6359500000 6.9602700000 -1.1745370000 0.4731420000 0.2514620000
Si 7.7086400000 2.6942300000 1.8420100000 0.0259690000 0.2437040000 1.5799990000
Si 0.0286900000 3.6802400000 19.6934000000 0.2546410000 -0.6382990000 -0.9901850000
Si -1.5168000000 4.4449800000 14.5755000000 -0.2599040000 0.2682620000 -0.2432350000
Si -1.4725100000 2.6699000000 17.1195000000 -0.7525910000 0.2941070000 0.1277070000
Si -1.4842800000 2.6569000000 11.9935000000 -0.8961990000 0.8323130000 0.2477750000
Si -1.5750200000 6.2853900000 9.4733100000 0.5821440000 0.0003090000 0.3831700000
Si -3.1137100000 7.0911300000 4.3991300000 -0.0908330000 0.6836910000 -0.3535770000
Si 6.1239100000 5.3859800000 6.9110400000 0.7347090000 -0.9506740000 1.4851680000
Si 6.1693500000 5.3238300000 1.8496600000 0.4000630000 -0.0938000000 0.1347760000
Si -1.5295000000 6.3046800000 19.5857000000 -0.0252420000 -0.0959140000 0.6971610000
Si -3.0273000000 7.1015900000 14.5396000000 -1.2699290000 0.7088100000 1.7136800000
Si -3.0408700000 5.3064800000 17.1168000000 -0.8436630000 -0.1037000000 -0.0419420000
Si 6.1639300000 5.2831400000 12.0492000000 0.0426140000 1.4562520000 0.5332440000
Si 4.5999300000 0.9691300000 9.5156400000 1.0620620000 -1.8453980000 -0.5880760000
Si 3.0667900000 1.8002300000 4.3697300000 -1.0169250000 0.5340410000 0.9618630000
Si 3.0150300000 0.0081800000 6.8704900000 0.2495110000 1.0581010000 1.0703980000
Si 3.1062600000 0.0167800000 1.9337900000 -0.2806100000 -0.1670730000 -0.7660040000
Si 4.6327100000 0.9199700000 19.6412000000 0.5499140000 -0.5410950000 -1.3521710000
Si 3.1588700000 1.7628700000 14.6524000000 -1.9828950000 1.0629580000 -0.9697930000
Si -1.4786900000 7.9594600000 17.1133000000 -0.4005810000 0.6951810000 -0.1222630000
Si -1.5833000000 8.0049200000 12.0943000000 0.7067460000 0.6309170000 -0.5417830000
Si 3.1066500000 3.5609000000 9.4778100000 0.3270560000 0.4834820000 -0.3638960000
Si 1.5364800000 4.4403700000 4.4042600000 -1.0928640000 1.2170340000 -0.1472250000
Si 1.5507400000 2.7744200000 6.9276900000 -0.6708160000 -1.8944900000 0.3639960000
Si 1.4788000000 2.6466000000 1.9317200000 0.5358080000 0.5621800000 -0.5898680000
Si 3.0658500000 3.6058600000 19.5699000000 -0.1341830000 0.1369750000 0.8827730000
Si 1.5833200000 4.4391900000 14.5757000000 0.1118790000 -0.1029440000 0.8688180000