144
lattice="9.2642450220 0.0000000000 0.0000000000 -4.6321225110 8.0230715360 0.0000000000 0.0000000000 0.0000000000 20.2192890090" Properties=species:S:1:pos:R:3:force:R:3 energy=-1121.4907633300 virial="-26.1764238021 3.4805039776 1.7739498986 3.4805039776 -23.7358040229 1.9722164874 1.7739498986 1.9722164874 -26.1683663199"
Si 7.7789900000 0.8699700000 9.4804200000 -1.5805610000 -0.0443950000 0.1763560000
Si 6.2194400000 1.8172700000 4.4085200000 -0.6153290000 -1.4065830000 0.8391130000
Si 6.1336200000 0.0743700000 6.9491000000 0.6965690000 -1.0803050000 -0.2426100000
Si 6.1867400000 0.0526500000 1.9394300000 -0.1820310000 -1.6858760000 -0.2914560000
Si 7.6991600000 0.8212700000 19.6658000000 0.1893230000 1.1437670000 -0.8437240000
Si 6.1712500000 1.7798300000 14.4564000000 0.1087830000 0.9783210000 2.8186450000
Si 1.4649600000 7.9937700000 17.1305000000 1.1452070000 1.2706080000 -1.1671070000
Si 6.1450500000 0.0147300000 12.0983000000 1.2233440000 -1.1805730000 -1.8647960000
Si 6.2588800000 3.5624400000 9.5718700000 -2.0098580000 -0.3544640000 -1.5690540000
Si 4.6600500000 4.4982400000 4.5074000000 0.6670830000 -0.3391320000 0.5181610000
Si 4.6397400000 2.7025800000 7.0499700000 0.1438080000 -0.7688700000 -0.6755410000
Si 4.6065600000 2.6294800000 1.9435300000 1.5988600000 1.0024020000 -0.4123010000
Si 6.1343300000 3.4840400000 19.6277000000 0.7240780000 1.6346480000 -0.1295600000
Si 4.6392200000 4.4866200000 14.4852000000 -0.6832190000 -0.0939890000 1.9415820000
Si 4.6848200000 2.6886700000 17.0090000000 -1.5595070000 1.4488900000 0.5502540000
Si 4.6451700000 2.7635600000 11.9207000000 -0.5886810000 -1.3074400000 1.0865100000
Si 4.5992900000 6.2763800000 9.5020200000 0.3246760000 -0.9245370000 0.6370030000
Si 3.1476800000 7.1492400000 4.4388900000 -0.8155520000 -0.3477690000 0.7571210000
Si 3.1247300000 5.3523700000 6.9480700000 -0.1337210000 0.8248780000 1.2531200000
Si 3.1111500000 5.3941200000 2.0255200000 -1.0811580000 -1.0294800000 -1.5048010000
Si 4.6214700000 6.2181800000 19.6418000000 -0.5716460000 -0.0735870000 -1.0886940000
Si 3.0602700000 7.1762600000 14.5215000000 0.7703870000 -1.3918160000 0.2845260000
Si 3.0682500000 5.3557000000 17.1113000000 0.8633440000 0.2180100000 -1.1331730000
Si 3.0782000000 5.3189300000 11.9708000000 -0.1178960000 0.6226840000 0.2507200000
Si 1.5331200000 0.8369100000 9.5223300000 0.6549340000 0.2341370000 -0.3808410000
Si 0.0612000000 1.7568900000 4.4632000000 -0.4633160000 0.5391850000 -0.2048960000
Si -4.5706400000 7.9919600000 7.0192000000 -0.9638480000 0.8084160000 -0.6142000000
Si -4.5617800000 8.0007700000 1.9533500000 -1.1878650000 1.0698360000 -1.0898230000
Si 1.5118100000 0.9276500000 19.5637000000 0.7718460000 -0.5504560000 -0.2501840000
Si -0.0272000000 1.8137800000 14.5884000000 0.4264660000 -0.1534620000 -0.1299430000
Si 9.1984700000 0.0566000000 17.0911000000 0.8663380000 0.0435480000 -1.0108700000
Si 0.0287800000 0.0067500000 12.0498000000 -0.3489320000 -0.2528160000 0.4349590000
Si -0.0035600000 3.4512600000 9.4837800000 0.5260970000 2.3205860000 -0.1252790000
Si -1.5390400000 4.4525700000 4.4458800000 -0.8780060000 -0.7049720000 0.4295380000
Si -1.4976200000 2.7255000000 6.9504600000 -0.6440430000 -1.4781490000 0.2773690000
Si -1.5536600000 2.7402400000 1.9318600000 0.5714150000 -1.0308770000 -0.9800510000
Si -0.0416700000 3.5427500000 19.6112000000 1.6898420000 1.0542370000 -0.1710400000
Si -1.5640600000 4.5011800000 14.4954000000 -0.0893490000 -0.0530900000 1.3144300000
Si -1.5342600000 2.7080100000 17.0782000000 -0.6852650000 0.0515810000 0.7782630000
Si -1.5211100000 2.6709500000 12.0170000000 -0.2812790000 -0.0011020000 0.5966460000
Si -1.5253600000 6.1581800000 9.5341000000 -0.0448260000 1.7586240000 -0.7191730000
Si -3.0400100000 7.1978300000 4.4949900000 -0.2990990000 -0.9092590000 -0.0391300000
Si -3.0554200000 5.3307500000 7.0912300000 0.5655540000 0.3348790000 -1.1476110000
Si 6.1331700000 5.3694000000 1.9270500000 0.3404870000 -0.5185860000 -0.1268720000
Si -1.6295500000 6.2893400000 19.5121000000 1.1902630000 -0.1889500000 2.1327310000
Si -3.0962800000 7.1333500000 14.4870000000 -0.2870970000 0.0863820000 0.5281740000
Si 6.1266400000 5.3939000000 17.0702000000 0.0641530000 -0.3149890000 -0.1816730000
Si -3.0700400000 5.3242300000 11.9681000000 -0.1434000000 0.7024480000 1.1383710000
Si 4.5827200000 0.9024300000 9.5188900000 0.5734830000 -1.6212820000 -0.6822200000
Si 3.1762400000 1.8449500000 4.4810200000 0.2181160000 -0.6628000000 -0.3996410000
Si -1.6016300000 7.9812800000 7.0186800000 0.5962840000 1.3143610000 -1.0330410000
Si -1.5351400000 8.0225000000 1.9425700000 0.3357160000 -0.0475830000 -0.6970760000
Si 4.6610900000 0.8940200000 19.5863000000 -1.4655610000 -0.6888910000 0.0768710000
Si 3.1485600000 1.7906000000 14.4283000000 -1.6225060000 0.4991870000 1.6007430000
Si 3.0987900000 0.1165700000 16.9755000000 -0.9359540000 -1.4873110000 -0.3208790000
Si 3.1064700000 0.0493800000 12.0390000000 0.1144290000 -1.0741850000 0.5385540000
Si 3.0436200000 3.5551400000 9.4743700000 0.5327520000 0.5473150000 -0.4235900000
Si 1.5537300000 4.4362500000 4.4600700000 -0.1715760000 0.3279100000 -0.1046060000
Si 1.5696600000 2.7323300000 6.9816300000 0.1540480000 -1.4808160000 -0.3921850000
Si 1.5836800000 2.6493000000 1.9529100000 -0.4344190000 0.3589830000 -0.8655920000
Si 3.0988200000 3.5451600000 19.6369000000 -0.5032370000 0.1743210000 -0.6552100000
Si 1.5520800000 4.4024400000 14.5561000000 -0.0472080000 0.8382250000 -0.3207320000
Si 1.5432000000 2.7140500000 17.0139000000 0.5679050000 -0.2557500000 0.6619090000
Si 1.5189200000 2.6775700000 11.9687000000 -0.1821870000 0.1447700000 0.9761100000
Si 1.5306700000 6.2817800000 9.4874900000 -0.2019070000 -0.3393300000 -0.8517510000
Si -0.0381800000 7.1584700000 4.4188400000 1.1908720000 -0.5729150000 1.0059590000
Si 0.0977100000 5.3497000000 6.9410100000 -2.3797250000 -0.1484120000 0.0826470000
Si -0.0276000000 5.3357900000 1.9298700000 0.4011070000 0.3132790000 -0.0109940000
Si 1.5208000000 6.2047300000 19.5487000000 -0.2946720000 -0.3202120000 1.8092940000
Si 0.0097500000 7.1204300000 14.5726000000 -0.1433130000 -0.2391710000 -0.8847690000
Si -0.0388700000 5.3736700000 17.0911000000 -0.1582370000 -0.4337310000 -0.7001440000
Si 0.0274700000 5.3660500000 11.9962000000 0.0831390000 -1.6477980000 -0.0458610000
C 7.7716700000 0.8631700000 7.5867300000 -0.6952320000 0.8230800000 0.2444100000
C 6.2517300000 1.7623900000 2.5432300000 -1.4497320000 1.4062790000 -0.2498750000
C 1.6029100000 8.0077300000 5.0322700000 -1.3227790000 0.6404110000 0.4239410000
C 1.5276800000 7.9647600000 0.0375400000 -0.0002140000 0.6138570000 -0.2155360000
C 7.6414900000 0.9057600000 17.7420000000 0.4594000000 0.0895540000 -0.2377840000
C 6.1819100000 1.7748800000 12.6465000000 -0.4699730000 0.9314040000 -1.3505180000
C 6.1876200000 0.0342700000 15.2018000000 -0.6095420000 -0.2482570000 -0.3356160000
C 6.1773000000 0.0085700000 10.1443000000 -0.0478440000 0.6084330000 -0.0178490000
C 6.2023000000 3.5478800000 7.6767300000 0.4446810000 0.0828220000 -0.3529620000
C 4.6033300000 4.4302000000 2.6374700000 0.6548350000 0.4056320000 -1.1657120000
C 4.7098400000 2.6891700000 5.1422100000 -0.1277330000 0.5571010000 -0.4157510000
C 4.6222100000 2.6279400000 0.0334000000 0.1505340000 0.3650110000 0.5605140000
C 6.1283700000 3.5763300000 17.7562000000 0.9211240000 0.5340830000 -1.1349360000
C 4.6168400000 4.5003100000 12.6639000000 0.7391920000 -0.4873170000 -2.0295740000
C 4.5893400000 2.6689500000 15.1541000000 1.5315760000 0.6100070000 -0.9088190000
C 4.5880800000 2.6467800000 10.0235000000 1.0308620000 1.5372930000 1.6949940000
C 4.7099200000 6.2733300000 7.6746900000 -1.0787220000 -0.9262220000 -1.1016880000
C 3.0943600000 7.1736800000 2.5700300000 0.6808640000 -0.2494500000 -0.2769080000
C 3.0974700000 5.3475100000 5.1245800000 0.2555090000 0.3311610000 -1.2548780000
C 3.0293700000 5.3109500000 0.0490100000 1.1473900000 0.6285260000 0.3854930000
C 4.6253100000 6.3346500000 17.6542000000 -0.6899030000 -1.4603790000 1.3438530000
C 3.1182300000 7.0800300000 12.6008000000 -0.6564550000 1.1535230000 0.6241330000
C 3.0590300000 5.3406900000 15.1845000000 0.3487550000 0.4269530000 -0.1293570000
C 3.0500700000 5.3414100000 10.0603000000 0.4976320000 -0.0060150000 0.8298240000
C 1.5295000000 0.9129800000 7.6112300000 0.4486430000 0.0813600000 0.3971780000
C -0.0129300000 1.8155100000 2.5169700000 0.7999050000 -0.7247170000 0.8613250000
C 4.6347300000 8.0172200000 5.1358200000 1.0213740000 0.0557490000 -0.5728310000
C 4.6353100000 8.0024400000 20.1912000000 0.0723920000 0.0942300000 1.3701780000
C 1.5764900000 0.9223900000 17.5975000000 -1.4465450000 0.4764060000 1.3950500000
C -0.0388500000 1.8121300000 12.6988000000 0.9227840000 -0.5610150000 -0.9711180000
C -4.6105300000 8.0171700000 15.1333000000 -1.1902530000 0.7329140000 0.6703100000
C -4.6258200000 8.0201200000 10.1746000000 0.0266890000 0.0311900000 -0.2475280000
C 0.0350400000 3.5632400000 7.5933500000 -0.2402820000 0.3617130000 -0.0272010000
C -1.5983400000 4.4595600000 2.5651800000 0.3597470000 0.7240040000 -0.1073420000
C 7.7059100000 2.6082600000 5.0753600000 1.6294960000 1.6027040000 0.0433040000
C -1.5256300000 2.6818300000 20.2013600000 -1.1708140000 -1.0979310000 1.2869650000
C 0.0426300000 3.5892700000 17.6862000000 -1.1705800000 -0.1208850000 0.4746730000
C -1.5453200000 4.4474900000 12.6593000000 0.1371420000 0.0910750000 -1.4108170000
C -1.5379700000 2.7819300000 15.2215000000 -0.6958040000 -1.6641790000 -1.1022340000
C -1.5337500000 2.6621400000 10.1445000000 0.4748320000 -0.7137400000 0.2733990000
C -1.5006300000 6.2704900000 7.5996000000 0.0677820000 -1.6498480000 0.9611840000
C -3.0505800000 7.1376100000 2.5687900000 -0.3247680000 -0.1245780000 0.5757650000
C -3.0091000000 5.3970300000 5.1744800000 -1.0810940000 -0.2916540000 -0.6353280000
C -3.0920300000 5.3560000000 0.0069000000 -0.5995840000 -0.9098390000 0.4332530000
C -1.6061100000 6.3063700000 17.6729000000 0.9284810000 0.1516490000 -0.8830110000
C -3.0445000000 7.0984300000 12.6351000000 -0.4329220000 0.5689650000 -0.6272190000
C -3.1020700000 5.3949200000 15.1655000000 0.0508480000 -0.6903690000 -0.1452610000
C 6.1573800000 5.3332600000 10.1131000000 0.0437600000 0.0035320000 0.3069860000
C 4.5368000000 0.8808400000 7.5840000000 1.2462320000 0.5584310000 0.7769770000
C 3.1453900000 1.7831400000 2.5418900000 -1.1415830000 -0.6189080000 1.1738070000
C 3.1135500000 0.0789100000 5.0856500000 -0.0835880000 -0.7023440000 0.4366550000
C 3.0322100000 0.0189300000 0.0510100000 0.7551000000 -0.0093880000 -1.0260110000
C 4.5839200000 0.9859000000 17.6179000000 0.8678750000 -1.7576620000 1.5491050000
C 3.0612800000 1.8504100000 12.6182000000 1.0892690000 -0.4288290000 -1.3563280000
C 3.0388600000 0.0415100000 15.0256000000 1.5336320000 -0.5783690000 1.5963580000
C -1.5671100000 7.9907300000 10.2092000000 0.2549880000 -0.0457570000 -1.5087510000
C 3.0876100000 3.5889800000 7.5970000000 0.2490160000 0.2564540000 0.0853540000
C 1.5398600000 4.4221800000 2.5711300000 0.1094150000 0.8060820000 -0.0279350000
C 1.6599700000 2.6637300000 5.0869900000 -1.8060800000 0.3874460000 0.2748850000
C 1.5802300000 2.6499500000 0.0281500000 -1.1225540000 0.4995290000 0.3140550000
C 3.0467900000 3.6087200000 17.7244000000 1.1915260000 -0.7513970000 -0.2659990000
C 1.5842600000 4.4336800000 12.6379000000 -0.9265250000 0.1333610000 -0.3403110000
C 1.5653900000 2.6476000000 15.1562000000 0.0623140000 0.0728230000 -0.3887910000
C 1.5530800000 2.6374700000 10.0875000000 -0.4701030000 -0.2973440000 0.5118250000
C 1.5344800000 6.2390600000 7.5128500000 1.5173200000 1.1813710000 1.4333140000
C 0.0089400000 7.1429900000 2.5661300000 -0.0277390000 -0.1213470000 -0.5828030000
C -0.0533400000 5.2794700000 5.0695900000 1.7250700000 1.2926090000 -0.0147150000
C -0.0392600000 5.3743400000 0.0548100000 -0.3349580000 -0.4329950000 -1.3451810000
C 1.5342400000 6.2294100000 17.6885000000 -0.8578800000 0.3570360000 0.1575060000
C 0.0403300000 7.0487600000 12.6116000000 -0.8113410000 2.3961420000 1.3398110000
C -0.0234600000 5.3095000000 15.1575000000 0.4939580000 0.9471550000 0.5529950000
C 0.0193500000 5.3486000000 10.0995000000 0.0464590000 -1.3990330000 0.3921170000
144
lattice="9.2642450220 0.0000000000 0.0000000000 -4.6321225110 8.0230715360 0.0000000000 0.0000000000 0.0000000000 20.2192890090" Properties=species:S:1:pos:R:3:force:R:3 energy=-1121.7976244100 virial="-28.3348253451 0.1877890480 1.4964029385 0.1877890480 -29.1533585967 -2.8315342935 1.4964029385 -2.8315342935 -17.3774000543"
Si 7.7099900000 0.9343700000 9.4522000000 1.3092710000 -0.1692220000 0.4870180000
Si 6.2236200000 1.7305700000 4.3399700000 -0.8424580000 0.6526290000 1.8231780000
Si 1.5936700000 7.9952900000 6.9276200000 -0.2791790000 -0.1690560000 -0.1128800000
Si 1.5220700000 8.0004600000 1.8892500000 0.4430180000 -0.1332620000 0.0573610000
Si 7.6294600000 0.8676400000 19.6305000000 2.1095650000 1.4316170000 0.3382840000
Si 6.1638000000 1.7554900000 14.5689000000 0.1493560000 0.0929970000 0.3395180000
Si 6.1860400000 0.0026900000 17.1236000000 -0.7101320000 0.6310410000 -0.1417730000
Si 6.1354900000 0.0129300000 12.0847000000 1.8422010000 0.2684890000 -0.3179630000
Si 6.1990400000 3.6291600000 9.5488500000 -0.2159750000 -0.6246050000 -0.3636770000
Si 4.6452100000 4.4540800000 4.4397600000 0.0600080000 0.0439750000 1.1361190000
Si 4.6428400000 2.6436100000 6.9217800000 -0.0655570000 -0.0874260000 1.5676410000
Si 4.6555700000 2.7636300000 1.9111900000 0.1900310000 -1.1461940000 -0.3113060000
Si 6.2453900000 3.6208600000 19.6654000000 -0.9587730000 0.1760300000 -1.3085580000
Si 4.6178900000 4.4110200000 14.6001000000 -0.6159910000 1.3871750000 -0.4439370000
Si 4.6005700000 2.6793900000 17.0475000000 0.6748850000 0.6667030000 1.6620360000
Si 4.6334600000 2.6437600000 11.9847000000 -0.5901010000 1.1399090000 1.5623280000
Si 4.6171700000 6.2517100000 9.4762500000 0.6452340000 0.3975330000 0.1544670000
Si 3.1205900000 7.1327300000 4.4181100000 -0.2742640000 -0.4239280000 -0.4154640000
Si 3.1449600000 5.3415900000 6.9080300000 -0.8620060000 -0.1779370000 1.4897500000
Si 3.1099700000 5.3375900000 1.9086400000 -0.9375780000 0.5739000000 -0.0650880000
Si 4.6589900000 6.2961500000 19.6473000000 -1.4374630000 -0.6282460000 0.0226240000
Si 3.0757100000 7.1825100000 14.6254000000 0.4042250000 -1.5433850000 -0.4762880000
Si 2.9808000000 5.4282000000 17.1211000000 1.7367570000 -1.6077180000 -0.4977290000
Si 3.1477300000 5.4064000000 12.0424000000 -0.9359270000 -0.0887110000 0.1629600000
Si 1.5731600000 0.8766100000 9.5142100000 -0.1102920000 0.4877200000 -0.8104130000
Si 0.0135100000 1.7449100000 4.4143100000 -0.0094210000 1.0864040000 0.9378720000
Si -4.5882400000 7.9874700000 6.9639400000 0.2849990000 1.2989430000 -0.4783150000
Si 9.1777800000 0.1196700000 1.9062600000 0.5886670000 -2.5479760000 -0.2689740000
Si 1.4901500000 0.8823700000 19.6266000000 0.9142640000 0.7493310000 -0.9306930000
Si -0.0872500000 1.7620900000 14.5874000000 1.3618970000 0.1038930000 0.2452550000
Si 4.5576900000 7.9691500000 17.1534000000 1.0212140000 2.1113180000 -0.1051420000
Si -4.5983000000 8.0149800000 12.0172000000 -1.4003880000 0.9568330000 0.4295390000
Si 0.0041500000 3.5749600000 9.5469100000 0.4196410000 0.2206330000 -0.6058420000
Si -1.4653900000 4.4450300000 4.4115000000 -2.2962260000 -0.9123430000 0.1938460000
Si -1.4910400000 2.7146000000 6.9489000000 -1.1439370000 -0.9730310000 1.8427940000
Si -1.4995800000 2.6766500000 1.8715800000 -1.0865290000 0.6273550000 -0.6134470000
Si 0.0604300000 3.6036300000 19.5599000000 -0.1307070000 -1.0919050000 0.0298190000
Si -1.5839100000 4.3903300000 14.5828000000 0.5452640000 0.6318090000 -0.2271480000
Si 7.6651300000 2.6948700000 17.1456000000 0.3909360000 -0.4856590000 0.1579620000
Si -1.5334100000 2.6797200000 12.0153000000 -1.1064850000 0.0602390000 0.3723620000
Si -1.4996300000 6.2639500000 9.4550700000 -0.5387900000 0.1998840000 0.2867140000
Si -3.0768300000 7.1285200000 4.4348900000 0.3188550000 0.0091990000 -0.9211430000
Si -3.0632600000 5.3332900000 6.9317400000 0.3087450000 0.2179050000 1.1389530000
Si -3.0652400000 5.4176300000 1.9622600000 -1.3824700000 -0.3967470000 -1.0807440000
Si -1.5706100000 6.2717200000 19.5607000000 0.2297720000 0.2386840000 0.8756890000
Si -3.0898300000 7.0765000000 14.5417000000 -1.0368330000 0.9027790000 1.1857030000
Si 6.1222600000 5.4178600000 17.0717000000 0.3749310000 -1.2642330000 0.6131890000
Si -3.0460800000 5.3348000000 12.0104000000 -0.9608530000 0.5055330000 1.8571340000
Si 4.6933200000 0.9229500000 9.4557400000 -0.1326030000 -1.0543390000 0.5998470000
Si 3.1315400000 1.7325000000 4.4354400000 -0.8431080000 1.8360300000 -0.6841000000
Si -1.5202800000 7.9736500000 6.8615100000 -0.0280370000 1.6737070000 0.7421530000
Si -1.5457600000 7.9657700000 1.9361400000 0.0253800000 1.3972730000 -0.6565760000
Si 4.6761200000 0.9270100000 19.6899000000 -1.1598600000 -0.1290630000 -1.2818560000
Si 3.0957100000 1.7545900000 14.6086000000 -1.2441250000 0.9613080000 -0.9951690000
Si 3.0897400000 0.0525800000 17.1400000000 -0.5469900000 -1.0384890000 -0.8928980000
Si 3.0064300000 0.0322900000 12.0055000000 1.6182070000 0.6273510000 1.4849750000
Si 3.1014200000 3.5811300000 9.4815300000 0.1042400000 -0.3505600000 0.7675420000
Si 1.5835500000 4.4300500000 4.3823300000 -0.3704260000 0.5617950000 0.4581960000
Si 1.5288100000 2.7247600000 6.9586900000 0.5035720000 -0.5956930000 0.3431590000
Si 1.6048600000 2.6300300000 1.8683400000 -0.2985520000 1.1333690000 0.2768020000
Si 3.1167900000 3.5916100000 19.5678000000 0.3043640000 -0.4774220000 0.6377610000
Si 1.5115700000 4.5023700000 14.5399000000 0.1091900000 -0.5423170000 0.4764400000
Si 1.5724300000 2.6891600000 17.0319000000 -1.0994000000 -0.5517450000 0.6083100000
Si 1.4864800000 2.7257700000 12.0644000000 1.0479800000 0.5581490000 -0.1239430000
Si 1.5560600000 6.2654100000 9.5503400000 0.6019210000 0.2326110000 -1.3815120000
Si 0.0774400000 7.0165300000 4.3660800000 -0.9984770000 1.3010920000 1.3107060000
Si 0.0308500000 5.2971400000 6.9392800000 -0.2878520000 1.1281040000 0.0712690000
Si 0.0195500000 5.3450700000 1.8666500000 -0.5860380000 -0.2691280000 0.3772980000
Si 1.5047400000 6.2007600000 19.5624000000 0.2480700000 0.5408290000 1.2713370000
Si -0.0569400000 7.1337800000 14.5789000000 0.6565550000 -0.2563180000 0.2005490000
Si -0.0625000000 5.3420300000 17.0877000000 0.2227650000 -0.5402410000 -0.7146610000
Si 0.0277300000 5.4424800000 12.0252000000 -0.3191710000 -1.2398030000 0.9124870000
C 7.7774900000 0.8622500000 7.5791700000 -0.5945110000 0.6477100000 -0.3699640000
C 6.1993200000 1.7510700000 2.4866100000 0.0891320000 0.9669580000 -0.2663710000
C 1.5647600000 7.9860600000 4.9987800000 0.1057540000 0.0914800000 0.6175070000
C 1.5712800000 8.0004100000 0.0119900000 -1.6946320000 -0.6567390000 0.6684280000
C 7.6894400000 0.9008400000 17.8348000000 -0.2121560000 -0.2926540000 -2.3454410000
C 6.1462600000 1.7747300000 12.6883000000 0.5126530000 0.6060840000 -0.3327980000
C 1.5475100000 8.0041600000 15.2282000000 -1.0844830000 0.4384690000 0.1673860000
C 6.2991100000 0.0656800000 10.1914000000 -2.4186920000 -1.1316360000 -0.6526500000
C 6.1794700000 3.5761900000 7.6543300000 0.2246250000 -0.1564260000 -1.0221580000
C 4.5818100000 4.4876500000 2.6156100000 1.6004890000 0.1176270000 -1.4846460000
C 4.6089600000 2.6534900000 5.0749800000 1.2936380000 0.1041040000 -0.8615310000
C 4.7017100000 2.7241200000 0.0023100000 -0.4393900000 0.1600530000 0.8186810000
C 6.1699600000 3.6138800000 17.7590000000 -0.6839890000 0.1150420000 -0.6675580000
C 4.6142700000 4.5205200000 12.6955000000 1.2217560000 -1.4125230000 -0.5982750000
C 4.6460500000 2.6605600000 15.1993000000 -0.4506090000 -0.4480920000 0.0150330000
C 4.6646700000 2.6513000000 10.1359000000 -0.2132030000 0.9973500000 -0.6389590000
C 4.6690100000 6.2569500000 7.5654300000 0.0677060000 -0.8696920000 0.3127370000
C 3.0471900000 7.1128900000 2.5127100000 0.7064990000 0.6432460000 0.2156370000
C 3.1037300000 5.3662900000 5.0772100000 0.1461520000 -0.4740750000 -1.0228610000
C 3.0269300000 5.3324500000 0.0513100000 1.3152900000 0.5432280000 -0.9317680000
C 4.5997300000 6.2694100000 17.7575000000 -0.6300550000 -0.8796240000 0.0432660000
C 3.1063000000 7.1666200000 12.7360000000 -0.1249900000 0.2989250000 -0.9601320000
C 3.0209600000 5.3446300000 15.2505000000 0.9667350000 0.4447350000 -0.4437250000
C 3.1261500000 5.3555300000 10.1106000000 -0.5368960000 0.0763380000 0.6007290000
C 1.5907400000 0.9407500000 7.5496300000 -0.2078470000 -1.1416750000 0.2907240000
C -0.0106300000 1.8155100000 2.5181800000 0.7520390000 0.7131760000 0.5522660000
C -4.5990100000 7.9909000000 5.0034100000 -0.2941450000 0.5019090000 1.1776190000
C 9.2279200000 0.0575300000 0.0345400000 -0.4843880000 -0.3630250000 0.1841510000
C 1.5237300000 0.8693300000 17.7085000000 -0.3374010000 0.5243570000 0.3138790000
C -0.0486100000 1.8610600000 12.6681000000 0.7430500000 -1.7521620000 0.3372000000
C 4.6045000000 8.0093600000 15.3028000000 0.2725360000 -0.0234600000 -1.5425520000
C 9.2464900000 0.0231200000 10.1132000000 0.6436440000 -0.1677730000 0.0845500000
C 0.0042900000 3.5964900000 7.6103700000 -0.0463520000 -0.5582150000 0.4622160000
C -1.5868500000 4.4637800000 2.5074600000 1.2704850000 -0.0826990000 0.5111430000
C 7.6944600000 2.6394500000 5.1583200000 0.7176750000 0.2005560000 -3.1279480000
C -1.4970100000 2.7212500000 20.1605000000 0.0983450000 -0.8576520000 1.6534100000
C -0.0044600000 3.5217400000 17.6640000000 0.2195840000 1.0768580000 0.6301280000
C -1.5383700000 4.4491200000 12.6600000000 0.3089470000 0.3443760000 0.0158720000
C 7.6909000000 2.6387500000 15.2782000000 -0.6077350000 0.0667910000 -0.9449240000
C -1.5288800000 2.6838000000 10.1448000000 -0.2094190000 0.4687530000 -0.3320720000
C -1.4843300000 6.2821600000 7.5154700000 -0.8045670000 -1.6918980000 1.0317190000
C -3.1558900000 7.1938600000 2.4813100000 0.5069580000 -0.1841660000 1.3713430000
C -3.0496000000 5.3713000000 5.0975800000 -0.0313490000 -0.8674990000 -1.4005400000
C -3.0958100000 5.4085200000 0.0135400000 0.3246850000 -0.3507170000 1.0778530000
C -1.5799400000 6.2414600000 17.7003000000 0.1732310000 0.6015630000 -0.1023990000
C -3.1082700000 7.1549400000 12.7048000000 0.4501030000 -0.6054240000 -1.2097030000
C 6.1744700000 5.3286000000 15.2079000000 -0.5497600000 -0.1679420000 -0.2552790000
C -3.0848800000 5.4033100000 10.2036000000 0.3449190000 -0.0961780000 -2.2080410000
C 4.6578900000 0.7971900000 7.5648500000 0.1917560000 1.3537900000 -0.2728830000
C 3.1556100000 1.8082900000 2.5055200000 -0.5038060000 -0.8773030000 0.6363550000
C 3.1156400000 0.0175600000 4.9775700000 0.4461340000 -1.8927780000 0.5927830000
C 3.0455600000 0.0435200000 0.0240100000 1.1469690000 -0.8118710000 0.2888930000
C 4.6234500000 0.9083100000 17.7308000000 0.3527210000 0.2032820000 0.2988890000
C 3.0526100000 1.8814200000 12.7057000000 0.1215990000 -1.4960790000 -0.8402370000
C -1.6128400000 8.0081200000 15.1721000000 1.0523830000 0.1523400000 1.0765080000
C 3.1318800000 0.0028400000 10.1626000000 -0.1140670000 0.2292910000 -1.0862350000
C 3.0658200000 3.5592800000 7.6365500000 1.0696780000 0.2158270000 -1.5251140000
C 1.5389100000 4.4912200000 2.4938300000 0.3408420000 -1.3019920000 0.3347040000
C 1.5445400000 2.7238400000 5.0880100000 0.2764540000 -1.5192820000 -0.9498960000
C 1.6274300000 2.6543700000 20.2112300000 -1.2054030000 0.5636500000 0.1498860000
C 3.0503300000 3.6079600000 17.7180000000 0.5332590000 -0.0470320000 -0.7560680000
C 1.5693800000 4.5468000000 12.6750000000 -0.3764520000 -0.4054050000 -0.9137910000
C 1.4794500000 2.7050900000 15.1712000000 0.8726700000 -0.6038320000 -0.2100610000
C 1.5636100000 2.6848900000 10.1269000000 -0.2533180000 -0.0507070000 0.5607060000
C 1.5428300000 6.1933200000 7.5047600000 0.9756790000 0.6313410000 1.3895820000
C 0.0286400000 7.0965900000 2.5367200000 -0.7175670000 -0.1273610000 -0.9546800000
C -0.0236800000 5.2749300000 5.0638900000 1.8947560000 0.7814800000 -0.3535730000
C -0.0362700000 5.3468100000 0.0172100000 0.2132820000 0.4539200000 -0.7835370000
C 1.4779700000 6.2460800000 17.7156000000 -0.4932020000 0.3049630000 0.1179960000
C 0.0289900000 7.1687100000 12.6953000000 -1.8318480000 0.2049440000 -0.4122960000
C -0.0417300000 5.3271100000 15.1765000000 -0.3483460000 0.4957660000 0.3865720000
C 0.0121100000 5.3897500000 10.1586000000 0.0127610000 -0.2800690000 -0.4873880000
144
lattice="9.2642450220 0.0000000000 0.0000000000 -4.6321225110 8.0230715360 0.0000000000 0.0000000000 0.0000000000 20.2192890090" Properties=species:S:1:pos:R:3:force:R:3 energy=-1121.2966389100 virial="-27.3873629994 2.7251267530 -1.4261743370 2.7251267530 -21.9328321804 2.6189068140 -1.4261743370 2.6189068140 -24.7529884462"
Si 7.7299100000 0.9529300000 9.5163900000 -0.5639350000 -0.8937030000 -0.2614010000
Si 6.1777300000 1.7398300000 4.4406500000 1.2430510000 -0.4056610000 -0.6386620000
Si 1.6437900000 7.9796100000 6.9429700000 -1.5012240000 0.5469490000 1.2050210000
Si 6.2156900000 0.0129100000 1.9525600000 -0.7833180000 0.0186500000 -0.0012980000
Si 7.6710300000 0.9773000000 19.6483000000 -0.3362190000 -1.5643260000 -0.8838920000
Si 6.1198700000 1.8701100000 14.6295000000 -0.0260780000 -1.2634260000 -1.4921550000
Si 1.5175900000 8.0167700000 17.0311000000 -0.6963160000 -0.4908150000 1.2440430000
Si 1.5953700000 8.0030100000 12.0858000000 -1.6007340000 0.0546860000 -1.1843360000
Si 6.1498400000 3.6201300000 9.5029300000 0.2051590000 -0.5209040000 -0.1382670000
Si 4.7598600000 4.4467800000 4.4207600000 -1.8719450000 -0.3059570000 -1.2559410000
Si 4.6012900000 2.6540600000 6.9635200000 1.4187220000 0.0693260000 -0.5330370000
Si 4.5950300000 2.7078800000 1.8656600000 0.7588420000 -0.6092220000 1.2881400000
Si 6.1789900000 3.6108800000 19.5969000000 -0.0234180000 -0.0354150000 1.0238970000
Si 4.6566800000 4.4163200000 14.5939000000 -0.2515750000 0.0913990000 -0.2142900000
Si 4.6495700000 2.6511200000 17.1725000000 -0.9444080000 0.0184940000 -0.8928380000
Si 4.6098600000 2.6860800000 12.0954000000 0.6644220000 -1.7174800000 -1.5660840000
Si 4.6086000000 6.2838900000 9.4437700000 0.5602800000 -0.1246560000 0.8674920000
Si 3.1448700000 7.0345400000 4.4669000000 -0.2935100000 1.3829700000 -0.1518610000
Si 3.1627800000 5.3475600000 6.9790700000 -0.6663840000 -0.4134320000 -0.5913080000
Si 3.0695200000 5.3993100000 1.8434600000 0.9816900000 -0.8667500000 1.0145180000
Si 4.6008200000 6.2635400000 19.6310000000 1.0905560000 0.4426050000 -0.9226630000
Si 3.0966000000 7.1438700000 14.5368000000 -0.0003830000 0.9660950000 -0.4377930000
Si 3.0493200000 5.3562100000 17.0073000000 -0.1629020000 0.0755900000 1.5068380000
Si 3.1418300000 5.3274400000 12.0858000000 -0.1265300000 -0.2020520000 -0.6402270000
Si 1.5674700000 0.9907500000 9.4297000000 0.1140540000 -0.9745900000 1.2385850000
Si -0.0022500000 1.8573100000 4.4499200000 0.2090750000 -1.4611660000 -0.7491020000
Si 0.0336700000 0.0652200000 6.9107200000 -0.6282840000 -1.0894530000 1.7486600000
Si 9.2331900000 0.0435300000 1.9181800000 0.8500910000 0.2661200000 0.0677810000
Si 1.5183000000 0.9130900000 19.6075000000 -0.2683300000 -0.0531390000 0.4053470000
Si -0.0282800000 1.8431800000 14.5435000000 -0.1401930000 -0.5300860000 0.1210820000
Si 9.1986400000 0.0325100000 17.0735000000 0.7836700000 -0.9683530000 -0.5243780000
Si 0.0394900000 0.0228800000 11.9468000000 0.2397750000 -1.1202740000 0.8692420000
Si 0.0894100000 3.6188600000 9.5188400000 -1.7503200000 -0.6023550000 0.2261510000
Si -1.6081800000 4.4404000000 4.4518300000 2.3593890000 -0.0560970000 -0.6758480000
Si 7.7048600000 2.6584500000 7.0439600000 0.3831510000 0.6005360000 -1.6087490000
Si 7.6954700000 2.7119500000 1.8897800000 0.7914730000 0.0839920000 1.6405900000
Si -0.0097500000 3.5909200000 19.5501000000 0.0361090000 0.1548520000 1.0996630000
Si -1.5341800000 4.4586100000 14.4832000000 -0.9919730000 0.8020620000 1.0280850000
Si 7.6518100000 2.6166100000 17.0817000000 0.8783180000 1.7379220000 -0.2305240000
Si 7.7170100000 2.5965800000 11.9983000000 0.2442770000 1.4013420000 0.5565640000
Si -1.5849500000 6.3071600000 9.4385600000 0.5851360000 -0.3094710000 0.4713890000
Si -3.1019900000 7.1624400000 4.3833500000 0.2267050000 0.1857520000 1.3069950000
Si 6.1792100000 5.2914900000 6.9239300000 -0.2982510000 0.7810370000 0.2705230000
Si 6.1375500000 5.3563300000 1.9021900000 2.0881920000 0.4796470000 0.6781560000
Si -1.5061900000 6.3618600000 19.6577000000 -0.5019930000 -2.4054260000 -0.6827100000
Si -3.1394800000 7.1123500000 14.5984000000 1.2114210000 0.2330310000 -0.8604140000
Si -3.0851800000 5.3549300000 17.1491000000 -0.7340980000 0.6966710000 -0.5415950000
Si -3.0591700000 5.3930300000 12.0199000000 -0.1157030000 -1.3147440000 -0.9086590000
Si 4.6820600000 0.8213900000 9.5164300000 -0.9562670000 1.5880270000 -0.8822480000
Si 3.1274000000 1.9497100000 4.4034900000 0.7551440000 -3.0866150000 -0.1266080000
Si -1.5243800000 8.0218800000 6.8317000000 0.4917380000 -0.5699240000 1.6625430000
Si -1.5289300000 7.9327900000 1.9416900000 -0.0467070000 0.9951770000 0.6428220000
Si 4.6131300000 0.8854100000 19.6595000000 0.2721420000 0.6373950000 -0.1174570000
Si 3.0426100000 1.7874700000 14.5145000000 0.3976470000 -0.8584880000 0.9393700000
Si 3.0712100000 0.0190500000 17.0845000000 -0.1483270000 0.2560670000 0.8052200000
Si 3.0935800000 0.0327600000 12.0499000000 -0.4516120000 -1.0751000000 -1.3977900000
Si 3.1178900000 3.5691400000 9.5133900000 0.0259300000 -0.0800150000 -0.1298940000
Si 1.5827400000 4.4814600000 4.4422400000 0.1150700000 -0.9601770000 0.0867380000
Si 1.5465800000 2.6223200000 6.9518700000 0.4065340000 0.7525160000 -0.1079070000
Si 1.5879400000 2.6079600000 1.9426000000 -0.5271670000 0.6001060000 -0.4142790000
Si 3.0974200000 3.5683900000 19.6063000000 -0.6157100000 0.4233400000 -0.1798760000
Si 1.5744200000 4.5051000000 14.5578000000 -0.6173300000 -0.6304070000 -0.4215990000