144
lattice="9.2642450220 0.0000000000 0.0000000000 -4.6321225110 8.0230715360 0.0000000000 0.0000000000 0.0000000000 20.2192890090" Properties=species:S:1:pos:R:3:force:R:3 energy=-1110.8384488300 virial="-18.1438551443 -3.9513367081 2.9979930570 -3.9513367081 -10.3040657329 0.1506439616 2.9979930570 0.1506439616 -10.3162879672"
Si 7.9630400000 1.0610500000 9.6233600000 -3.3320760000 -1.9568700000 -1.0841580000
Si 6.1228600000 1.7113700000 4.3658900000 -0.4135620000 1.5689230000 0.5351460000
Si 6.0503400000 0.0303000000 6.9028600000 2.2482680000 0.6088320000 -0.3336500000
Si 1.5289900000 7.9395000000 1.8896100000 0.0181250000 0.7459030000 0.2495990000
Si 7.7341100000 0.8666500000 19.5384000000 -0.5840340000 0.4632850000 1.2951720000
Si 6.1677800000 1.8030000000 14.6101000000 1.6014380000 -0.4409040000 -0.6321120000
Si 1.6145800000 8.0187000000 17.1474000000 -1.4011710000 0.1462980000 -0.8222940000
Si 6.1243200000 0.0206600000 12.1141000000 1.0814620000 0.8505420000 -0.8317350000
Si 6.2886100000 3.5506100000 9.4061100000 -0.1691220000 0.0021420000 0.6265060000
Si 4.5150700000 4.4048400000 4.3665300000 0.6153530000 1.0654510000 1.4020880000
Si 4.5849100000 2.6848700000 6.8805100000 0.7951940000 -0.0062130000 2.1526580000
Si 4.6779500000 2.6331700000 1.9264500000 -0.9732800000 -0.5515890000 0.1539570000
Si 6.0935900000 3.5389200000 19.4659000000 0.1780610000 -0.2062500000 4.0561680000
Si 4.6609000000 4.5206200000 14.4869000000 -0.9264870000 -1.6986700000 0.0463540000
Si 4.7140200000 2.6392300000 17.0748000000 -2.3965950000 -1.1582120000 -1.4087110000
Si 4.6787600000 2.6644200000 11.9376000000 -0.2412590000 0.8086920000 0.7688060000
Si 4.6311900000 6.2333700000 9.5817500000 -0.2278430000 1.0167480000 -0.7409030000
Si 3.0979300000 7.2409300000 4.3356700000 -0.2227820000 -0.6178730000 2.9280970000
Si 3.0383400000 5.4107300000 6.9003000000 1.6644060000 -0.0106830000 -1.5606290000
Si 2.9137100000 5.3048700000 1.9480900000 1.9742510000 -0.5455820000 1.1327080000
Si 4.6272500000 6.3249500000 19.7060000000 -1.4480230000 -3.6910830000 -2.2689710000
Si 3.1373600000 7.1681800000 14.7013000000 -0.5294100000 -0.6934250000 -1.6733780000
Si 3.1153100000 5.3159900000 17.1190000000 -0.6251020000 -0.4734970000 -0.3855210000
Si 3.0210500000 5.3398300000 12.0583000000 2.2668710000 1.7791270000 2.2531320000
Si 1.6327100000 1.0462600000 9.5291400000 -0.9706710000 -0.7271760000 -0.1776150000
Si 0.1832300000 1.8135900000 4.4384300000 -3.7380180000 -1.3746920000 -0.5296610000
Si 4.6446100000 7.9827000000 7.0408200000 -0.8572020000 0.7376140000 -1.6251960000
Si 0.0133200000 0.0059100000 1.8749000000 0.1487440000 -0.6817660000 0.8293830000
Si 1.6333700000 0.9303600000 19.6874000000 -0.4962590000 -2.2610450000 -1.7884760000
Si 0.0608000000 1.7334300000 14.4479000000 1.6919370000 0.9852940000 3.2569310000
Si -4.4846800000 7.9077300000 17.0991000000 -0.9153890000 2.5445730000 -0.2441000000
Si 0.0022400000 0.0327300000 12.1189000000 -1.2107120000 -0.0931820000 -1.1160770000
Si -0.0214100000 3.7338300000 9.4442900000 0.6149540000 -0.3692000000 3.5202740000
Si -1.5869300000 4.3589000000 4.3743800000 -1.2177650000 0.9125200000 -0.1128740000
Si 7.7159900000 2.6069100000 6.8428000000 0.2069920000 0.8577830000 0.0206870000
Si -1.4632600000 2.6442400000 1.8790300000 -2.2281760000 0.1968680000 0.4721800000
Si 0.0098300000 3.4680200000 19.4994000000 -1.2601250000 2.4620790000 0.6650840000
Si -1.4814200000 4.4898000000 14.5771000000 -0.5246160000 -0.5575160000 0.7734690000
Si -1.4457000000 2.6434600000 17.0486000000 0.4682870000 0.4613600000 -0.1322430000
Si -1.4939900000 2.8611000000 12.1139000000 -0.6637040000 -3.6225240000 0.3877390000
Si -1.5754300000 6.2914500000 9.6478000000 1.7129000000 0.3212270000 -1.6924880000
Si -3.0132400000 7.1936300000 4.3653100000 -1.2179030000 -1.8159770000 0.8598490000
Si 6.1858900000 5.3179500000 6.9400100000 0.7038510000 0.9118410000 -0.4037900000
Si 6.1605000000 5.3143300000 1.8459700000 -1.5873390000 -1.1858420000 0.3346910000
Si -1.6221700000 6.1392700000 19.6070000000 -0.9930750000 1.7378160000 -0.6499100000
Si -3.1230200000 7.0697400000 14.5453000000 1.4171960000 1.2246780000 0.4649660000
Si 6.1298500000 5.1872500000 17.0799000000 -0.0682580000 3.3586440000 -1.1868250000
Si -3.0152500000 5.3401900000 11.9576000000 -2.0743440000 0.2687900000 0.5124390000
Si 4.7419800000 0.9654200000 9.4675500000 -1.7938730000 -0.5891510000 0.0839100000
Si 3.0553200000 1.8675600000 4.3634500000 -1.2506380000 -1.9138360000 1.5187950000
Si 3.0132400000 0.0039200000 7.0390200000 0.4216130000 -0.4494040000 -0.3020490000
Si -1.5033200000 7.8887400000 1.9184800000 -0.5035130000 1.9505170000 -0.4411990000
Si 4.6127400000 0.9000100000 19.5880000000 -1.2296170000 -0.3335200000 0.8658870000
Si 3.1881400000 1.7836600000 14.5402000000 -0.6757950000 -0.1099780000 0.0884450000
Si -1.5788800000 7.9468000000 17.1476000000 1.6768790000 2.3319750000 -2.2294150000
Si -1.6460900000 7.8927700000 12.1583000000 2.9045170000 3.4548850000 -2.1622230000
Si 3.0552200000 3.7661100000 9.4565900000 1.0700670000 -1.6917290000 -0.2216070000
Si 1.3819400000 4.5133900000 4.4748800000 1.0175840000 0.3236280000 0.6265550000
Si 1.3952700000 2.7276900000 6.9797100000 2.8220650000 -0.6198800000 0.6679360000
Si 1.5566500000 2.5665400000 1.8408200000 -0.8845810000 2.2485060000 1.2508900000
Si 2.9741100000 3.5791000000 19.6283000000 2.7241980000 0.3081740000 0.3504840000
Si 1.4936200000 4.5882800000 14.5166000000 2.2523390000 -2.7337990000 2.1466810000
Si 1.6778400000 2.7155300000 17.1216000000 -1.4014770000 -1.7945460000 -2.9052250000
Si 1.6111100000 2.6373200000 12.0538000000 -1.5534890000 1.3154370000 -0.6768150000
Si 1.5781900000 6.3845200000 9.3820400000 -0.4471620000 -0.2477280000 3.7644840000
Si -0.1315200000 7.2034000000 4.4701600000 1.2333500000 -1.9008250000 -0.4082930000
Si 0.0309600000 5.3915600000 7.0415900000 -2.0904740000 -0.3136330000 -0.6016360000
Si -0.0671100000 5.2851900000 1.7674800000 0.4936830000 0.3398380000 1.9229230000
Si 1.5213000000 6.2288900000 19.6348000000 -0.7442100000 0.7353890000 -0.8026970000
Si 0.0230500000 7.0649200000 14.5504000000 -0.3015500000 3.5920790000 1.4244060000
Si -0.0029300000 5.4099300000 17.1873000000 0.0449470000 1.3891430000 -1.2450620000
Si 0.0606300000 5.3766000000 12.2125000000 0.6521170000 -1.1470220000 -3.0589930000
C 7.6912600000 0.9476500000 7.5913700000 0.4413610000 -1.5488430000 0.6750840000
C 6.1976200000 1.7339500000 2.5404900000 0.0711660000 -0.2522550000 -1.4649800000
C 6.0879400000 0.0424700000 4.9717000000 0.8031300000 -1.8269560000 1.4760890000
C 1.4358200000 7.9824200000 20.1731000000 2.3904450000 0.8388190000 1.2511770000
C 7.7790900000 0.9007100000 17.6751000000 0.9762390000 -0.4842090000 0.2913040000
C 6.1798500000 1.8154800000 12.7192000000 0.2748770000 0.5261830000 -0.8200990000
C 1.5645700000 7.9970000000 15.2365000000 -0.3662620000 0.7245480000 0.5071510000
C 6.1817900000 0.0715100000 10.2107000000 1.4630930000 0.4683860000 -1.0426160000
C 6.3006000000 3.5624300000 7.5091800000 -2.1049820000 -0.6806420000 0.0933160000
C 4.5350200000 4.3387700000 2.5419000000 0.5673340000 1.7605430000 -1.1562680000
C 4.4880300000 2.5946700000 5.1151000000 2.7090290000 1.9033390000 -2.7747720000
C 4.5837800000 2.6682200000 0.1056300000 -0.2146950000 -0.1092950000 -2.3896030000
C 6.1514700000 3.4906400000 17.6857000000 2.4147690000 -0.2269340000 -0.8932220000
C 4.7013800000 4.4837400000 12.6588000000 -1.0289490000 -0.1180430000 -1.8887750000
C 4.6936600000 2.7436000000 15.1208000000 -0.2124270000 -0.5291130000 1.9306350000
C 4.6998800000 2.7761900000 9.9980000000 -0.8950480000 -0.3746610000 0.8630600000
C 4.6393000000 6.2048400000 7.5832400000 -0.4920820000 0.1156920000 0.9334510000
C 3.1257800000 7.0654800000 2.5977900000 -0.5635500000 1.0667590000 -4.0513340000
C 3.0086300000 5.4591200000 4.9120200000 -0.2772850000 -1.0120980000 2.1855460000
C 2.9573700000 5.3780100000 0.1007100000 1.5355510000 -0.6282950000 -0.7028130000
C 4.6002100000 6.2174700000 17.7364000000 0.8952220000 -1.1520710000 0.5288870000
C 3.0463000000 7.2750600000 12.7586000000 0.6703810000 -2.3950620000 -0.1106790000
C 3.1390000000 5.3010700000 15.2059000000 -0.8273280000 1.5090290000 0.3829250000
C 3.0247400000 5.4270900000 10.3038000000 0.9948170000 0.8625790000 -4.4260660000
C 1.5078700000 0.9187700000 7.5496700000 -0.0559960000 0.8009540000 1.8558620000
C 0.0095800000 1.8268900000 2.5448300000 1.0912050000 -1.8073400000 -0.7353610000
C 0.0586200000 0.0193200000 4.9976700000 -0.2368690000 0.1270590000 0.8930770000
C -4.5847300000 7.9715100000 20.1909000000 -0.6979280000 3.8505900000 1.4200930000
C 1.6682800000 0.8872200000 17.7215000000 -2.3887550000 0.8127410000 1.2262330000
C -0.0054600000 1.7953300000 12.6756000000 0.7352840000 0.9646790000 -1.3522320000
C -4.5624900000 8.0229300000 15.2034000000 -0.1607310000 -0.2486980000 0.3897690000
C 0.1014200000 0.0700400000 10.2311000000 0.2888400000 -0.7042910000 -0.7312250000
C -0.0751500000 3.5624100000 7.6613600000 0.1611560000 0.9116680000 -2.0253320000
C -1.5979300000 4.4159100000 2.3609000000 0.6554730000 -0.0065330000 2.1167790000
C 7.6862000000 2.5328300000 4.9163100000 1.2780660000 1.5019460000 1.4381280000
C -1.5576600000 2.7569900000 0.0501100000 -0.0666880000 -2.0037340000 -2.6324090000
C 0.1357300000 3.6667300000 17.6218000000 -1.5641620000 -2.3248310000 1.3449540000
C -1.5302000000 4.5438000000 12.7145000000 0.9489810000 0.4334500000 0.1221760000
C -1.3621700000 2.6443300000 15.2018000000 -2.3268790000 0.9209500000 -0.6137600000
C -1.4208200000 2.7397900000 10.3142000000 -0.8017600000 1.5857720000 -2.8848630000
C -1.5100200000 6.2742400000 7.7266600000 -0.5978680000 -0.4061090000 -1.0129540000
C -3.0094300000 7.0546900000 2.4471700000 -1.9558680000 0.7920150000 1.0860120000
C 6.1030100000 5.3395600000 4.9880200000 0.5108330000 -0.4211810000 0.3461960000
C 6.0556100000 5.3007900000 20.1635700000 1.1039820000 -0.3516800000 0.6732730000
C -1.6884600000 6.2964200000 17.7137000000 1.3403780000 -3.9996620000 0.6336290000
C -3.1392000000 7.1309300000 12.6722000000 -0.5349880000 -1.4060740000 0.4528670000
C 6.1534900000 5.3204000000 15.0535000000 1.4805990000 -0.3242990000 3.1434270000
C 6.1912900000 5.3194300000 10.0401000000 0.0090300000 0.0278610000 1.8761610000
C 4.5639300000 0.8699300000 7.4912800000 0.3063210000 1.4220900000 2.1187510000
C 3.0103700000 1.7243200000 2.5091900000 1.8325690000 -0.6474420000 -0.1079170000
C 3.0753100000 0.0513900000 5.1773700000 -1.1075840000 0.4055590000 -2.0332640000
C -1.5742800000 7.8908300000 0.0918100000 0.6630850000 1.8068810000 -1.4683120000
C 4.5983300000 0.8874800000 17.7306000000 1.2751360000 -0.7223610000 -0.5454980000
C 3.0959600000 1.8429000000 12.6417000000 1.5323960000 -2.3749940000 0.0152490000
C -1.5313900000 7.9752400000 15.2187000000 0.0827900000 0.2723940000 -0.6725310000
C 3.0424500000 0.0374700000 10.1782000000 1.4197410000 0.6967610000 0.6766140000
C 3.1078300000 3.6630400000 7.4624500000 -1.7048530000 -0.6208220000 1.9201450000
C 1.4430500000 4.3994100000 2.6502400000 -0.5037830000 -0.2797620000 -3.0948620000
C 1.5349600000 2.7087600000 5.1546000000 0.3736490000 1.4202670000 -1.2926360000
C 1.4953700000 2.6857900000 20.1897200000 0.2785370000 -0.5510350000 1.0707490000
C 3.1604400000 3.4452300000 17.7664000000 0.8389960000 2.7760020000 0.1655880000
C 1.6184800000 4.4181700000 12.7064000000 -1.9117530000 0.4095460000 -0.0859370000
C 1.6904900000 2.6813900000 15.1246000000 -2.0249030000 0.6945880000 1.1649960000
C 1.5396900000 2.8784100000 10.1286000000 0.5745190000 -1.5923770000 -0.1273270000
C 1.5799300000 6.3055700000 7.5465900000 -0.8188940000 -0.1949480000 0.0285400000
C -0.0459900000 7.0665100000 2.5519400000 1.3126490000 -0.4884310000 0.1451260000
C -0.1917600000 5.3462700000 5.1475600000 1.6578660000 0.4246770000 -0.5039240000
C -0.0610500000 5.4317200000 20.1272400000 1.0038290000 -2.9702760000 0.7338420000
C 1.5900500000 6.2606900000 17.7814000000 -0.1762200000 -0.6075970000 -0.9152740000
C 0.0229300000 7.0818000000 12.7295000000 -1.0052640000 1.5142450000 -0.0621180000
C 0.0112800000 5.4682700000 15.2510000000 -0.2751510000 -3.0454600000 0.5140040000
C 0.0918700000 5.4765800000 10.2892000000 -1.3947820000 -0.3519380000 -2.0248520000
144
lattice="9.2642450220 0.0000000000 0.0000000000 -4.6321225110 8.0230715360 0.0000000000 0.0000000000 0.0000000000 20.2192890090" Properties=species:S:1:pos:R:3:force:R:3 energy=-1110.8325060000 virial="-19.0524839906 -5.8071652581 2.7501715461 -5.8071652581 -22.3569896710 -0.0373608281 2.7501715461 -0.0373608281 -0.8745791837"
Si 7.5328200000 0.8549600000 9.3813700000 2.0986930000 1.1454720000 2.4107840000
Si 6.2375700000 1.8294900000 4.3954800000 -3.1492100000 1.0040970000 0.8780680000
Si 6.2484700000 0.0022900000 6.9946000000 -1.6826100000 1.4481540000 -0.9984410000
Si 6.1778900000 0.0367800000 1.9752300000 -0.2077370000 -1.7201540000 0.2258380000
Si 7.7885400000 0.7708900000 19.5689000000 -0.8083660000 0.0834850000 2.0564020000
Si 6.1644200000 1.9087500000 14.5452000000 0.1529280000 -1.0967260000 0.0844950000
Si 6.2237800000 0.0348400000 16.9999000000 -2.0249420000 -0.7184200000 0.6321350000
Si 6.2004300000 0.0804600000 11.9885000000 -0.6147830000 0.7184450000 0.9073650000
Si 6.0905500000 3.6992700000 9.4599000000 3.2720070000 -0.8438210000 1.2206600000
Si 4.7152300000 4.6077100000 4.4585900000 -3.0368760000 -4.0953740000 0.0423790000
Si 4.6303400000 2.6866600000 6.9246400000 1.1431180000 -0.7272020000 -0.3032880000
Si 4.6128600000 2.6853900000 1.7482500000 0.3800220000 -1.2020680000 4.3347510000
Si 6.3683200000 3.4753100000 19.6329000000 -0.9808210000 1.1948550000 0.3937370000
Si 4.5829500000 4.4940800000 14.5896000000 -0.1829520000 -1.2130190000 -1.3488500000
Si 4.5775300000 2.6984900000 17.1764000000 1.6855530000 -0.4095740000 -1.5878770000
Si 4.6131100000 2.8225100000 11.9719000000 0.6221390000 -0.2015190000 1.9984360000
Si 4.6442400000 6.3168400000 9.4253400000 -0.7668120000 -1.7555110000 1.1105400000
Si 2.9363900000 6.9699100000 4.5687500000 0.9032160000 3.8572610000 -0.1572100000
Si 3.0103800000 5.3082500000 7.0131500000 0.3240950000 1.4858490000 -0.9559450000
Si 3.1472000000 5.2960100000 1.9828400000 -0.9674090000 0.3964220000 1.1564410000
Si 4.7001400000 6.0279100000 19.5872000000 -1.2257900000 1.0603900000 0.8764490000
Si 3.0916000000 7.1744900000 14.4727000000 0.2481990000 -0.1200960000 0.6986360000
Si 3.1686800000 5.4388000000 17.0736000000 -1.1938450000 -1.7796590000 -0.5064090000
Si 3.0843200000 5.4152600000 11.8598000000 -0.8437290000 -0.0668480000 4.4502590000
Si 1.4613600000 0.7384100000 9.4989800000 0.3100070000 2.5927350000 -0.7960730000
Si -0.2756800000 1.6957600000 4.3237000000 2.2744050000 1.5423330000 2.1407710000
Si -0.0491100000 0.1204000000 6.9600100000 -1.1707410000 -0.9931550000 -1.4396680000
Si 4.6080300000 7.9406800000 1.9023200000 -0.5810130000 -0.2156360000 0.7313830000
Si 1.5471500000 0.7576600000 19.5417000000 0.8328000000 0.2724840000 0.6397050000
Si -0.0351400000 1.7965000000 14.7008000000 2.5471130000 -1.2899300000 -1.8770090000
Si 9.1668300000 0.0202900000 17.1209000000 2.0531780000 0.2056340000 -0.1346380000
Si 0.0545100000 0.0034100000 11.9572000000 -0.0411090000 0.7435090000 3.3355400000
Si 0.0913800000 3.4948200000 9.4706600000 -1.5679950000 0.2540950000 0.0479290000
Si -1.5738400000 4.6372100000 4.4964600000 -1.3241010000 -2.3616810000 -1.0657180000
Si -1.6000700000 2.7893700000 6.9945600000 1.1719660000 1.0625910000 -0.2678460000
Si 7.6940100000 2.7187400000 1.8866200000 -0.6443230000 -0.7250420000 2.1883420000
Si 0.1248400000 3.5638700000 19.7399000000 -0.8790780000 -0.0849610000 -1.5558210000
Si -1.5552900000 4.4583200000 14.5739000000 0.5071830000 1.0377350000 -0.5165570000
Si -1.5483400000 2.6948400000 17.0431000000 -0.0068890000 0.7822510000 2.5929380000
Si -1.4441900000 2.6337900000 12.0207000000 -1.2651000000 -0.2591190000 0.2468340000
Si -1.5165000000 6.2946100000 9.4372400000 0.7422020000 -1.3249010000 -0.0888280000
Si -3.2443500000 7.1464500000 4.4993600000 2.3717960000 2.1098600000 -1.2280090000
Si 6.0529200000 5.4595400000 6.9961100000 1.2320020000 -0.3524580000 0.4993220000
Si -3.0874800000 5.3542400000 1.9684700000 -1.0936540000 -0.8797820000 -1.0014740000
Si -1.4634700000 6.2120800000 19.6916000000 -1.2650420000 0.2783100000 -1.6254460000
Si -3.0251800000 7.1748900000 14.5982000000 -1.1745010000 -0.4375890000 -0.6098370000
Si -3.0045300000 5.4197200000 17.2393000000 -0.9814600000 -0.0076040000 -2.5080940000
Si -3.0711600000 5.3774500000 12.1375000000 -0.0668780000 1.0807750000 -1.5058130000
Si 4.5813200000 0.9467400000 9.5495000000 0.4951330000 -0.1851480000 -2.5987380000
Si 3.0430000000 1.7761800000 4.3906100000 0.2356380000 -0.1901360000 0.2334460000
Si 3.0875800000 0.1272600000 6.9453400000 -1.4704240000 -2.4533080000 -0.8020720000
Si 3.0208400000 0.0217400000 1.9085900000 0.9973620000 -0.1925820000 0.4580610000
Si 4.7610200000 0.7863500000 19.6104000000 -2.4094910000 0.3656210000 0.3182300000
Si 3.0385900000 1.8131700000 14.5218000000 3.4870230000 -1.5172730000 0.4641130000
Si 3.1564500000 0.0106000000 16.9993000000 0.8379080000 -0.2769860000 1.3974460000
Si 3.2320900000 0.1439400000 11.9904000000 -0.9845290000 -1.0578080000 0.3905320000
Si 3.1702800000 3.4150800000 9.4047900000 -2.4556270000 1.8272390000 0.7809060000
Si 1.5484800000 4.3462000000 4.3525300000 -0.7688960000 0.5407440000 3.0622230000
Si 1.6285300000 2.6300200000 6.7987800000 -2.2868960000 0.6950800000 1.6757210000
Si 1.5386200000 2.6239500000 1.9383900000 -1.1577280000 1.0111180000 -0.5791520000
Si 3.2728400000 3.5313200000 19.6062000000 -2.3584920000 -0.1857140000 0.6962220000
Si 1.6345700000 4.3752800000 14.6512000000 -1.7071460000 0.4397400000 -2.7262280000
Si 1.5402900000 2.6412700000 17.1661000000 1.8248550000 -1.3802610000 -1.1930380000
Si 1.6178700000 2.7505900000 12.0074000000 -1.9269670000 -0.5983130000 1.4533640000
Si 1.4810600000 6.2421800000 9.5510200000 1.5222140000 -0.5992410000 -1.4518700000
Si 0.0281300000 7.1417700000 4.4553200000 -1.1496010000 1.4325780000 -0.4283540000
Si -0.1351800000 5.4009100000 6.8968800000 1.9190510000 -0.1937090000 1.8584970000
Si -0.0508400000 5.3282600000 2.0110400000 0.8095570000 1.2329570000 -0.4555520000
Si 1.5774500000 6.1973400000 19.6441000000 -0.1735530000 -0.8211170000 0.1383680000
Si 0.0109100000 7.1656800000 14.5403000000 1.4281750000 -0.3744610000 -0.9939570000
Si 0.1552500000 5.2492100000 17.0538000000 -1.6199050000 2.8221580000 -0.1978270000
Si -0.0561500000 5.3971000000 11.8861000000 0.9358010000 -1.5077860000 3.9382780000
C 7.7235200000 1.0944200000 7.5851900000 -0.8352150000 -3.1351860000 -0.3795950000
C 6.1584400000 1.8152100000 2.5467600000 0.0937590000 -0.0668830000 -1.1052940000
C 6.1449500000 0.1334200000 5.0784000000 0.5271730000 -2.7668970000 0.7045400000
C 1.5297600000 7.8898800000 0.0576100000 2.1544520000 1.7288850000 0.5626140000
C 7.6177400000 0.9161900000 17.7445000000 2.1273680000 0.8293200000 -0.6239060000
C 6.0890500000 1.8737700000 12.6875000000 1.3168930000 -0.1543860000 -1.3311390000
C 6.2194000000 0.0862700000 15.1154000000 -0.4398350000 -0.3395140000 0.7209700000
C 1.4080000000 8.0091600000 10.1267000000 1.3319090000 0.3222250000 -0.3288960000
C 6.1417800000 3.6498800000 7.6491900000 -0.6420690000 0.2628620000 -1.8219670000
C 4.6299100000 4.3266600000 2.6115200000 0.6968920000 2.4150180000 -1.2108070000
C 4.5482700000 2.6914700000 5.0926100000 1.4743800000 0.8252390000 -1.3601450000
C 4.8094100000 2.5986700000 0.0051200000 -0.7333270000 0.1746070000 -1.7537670000
C 6.1798300000 3.6410000000 17.7917000000 0.5987410000 -1.0599560000 -0.9521120000
C 4.5700200000 4.5731600000 12.6667000000 0.7456830000 0.0144300000 -0.5829250000
C 4.6148700000 2.6893300000 15.1956000000 -0.2180920000 0.4712730000 1.0360520000
C 4.7104400000 2.7416400000 10.1243000000 -1.3799160000 -1.2092310000 -0.0360920000
C 4.5255100000 6.3408000000 7.5362200000 -0.1703200000 -0.1019330000 0.8562910000
C 3.0267300000 7.0065100000 2.7855500000 0.6234540000 1.2730930000 -4.5354260000
C 3.0636200000 5.3073100000 5.0877800000 -0.6942030000 -1.9488460000 1.2624510000
C 3.0676200000 5.3131400000 0.1668100000 1.4745810000 -1.1202060000 -2.4364640000
C 4.6237100000 6.3093400000 17.7396000000 0.9452940000 -1.4659260000 0.1944440000
C 3.0582600000 7.2916500000 12.6218000000 1.7263180000 -2.0528700000 -1.0590670000
C 3.0766600000 5.3482500000 15.1059000000 0.3578590000 1.5574320000 2.2091190000
C 3.0689400000 5.2305500000 10.1232000000 0.5113760000 1.3943860000 -3.3289130000
C 1.4594100000 0.8596100000 7.5172900000 1.9592480000 1.4804930000 1.5456570000
C -0.1195700000 1.7867100000 2.5244900000 1.3869560000 -0.9831190000 -1.2779360000
C 9.1344900000 0.0060300000 5.0364000000 -0.7686520000 -0.5413730000 1.1449190000
C 4.6475300000 7.7537500000 20.1807000000 -0.0790780000 3.1297210000 0.8424540000
C 1.6594100000 0.7789400000 17.6265000000 -3.1719790000 1.7913600000 1.5666570000
C 0.0549900000 1.7254200000 12.8180000000 -0.1127490000 1.1723560000 -2.2758030000
C -4.6209000000 8.0190100000 15.2818000000 -0.6060440000 -0.1120730000 -1.1126470000
C 4.5404500000 8.0000200000 10.1779000000 -0.3189520000 0.0991400000 -2.5081730000
C 0.0670200000 3.6080100000 7.5828600000 -0.4504160000 -0.0250020000 -0.8961150000
C -1.6273700000 4.4680100000 2.5556800000 1.5348470000 -0.1024850000 0.9948590000
C 7.6198100000 2.7886900000 5.1047000000 0.7636530000 0.2616090000 -0.3612100000
C -1.4331200000 2.6051800000 0.1363100000 0.4888460000 -0.4564410000 -3.4617840000
C 0.0959200000 3.5606500000 17.6918000000 -2.0494230000 -0.9014530000 1.6096150000
C -1.5844800000 4.4070800000 12.6358000000 1.2169750000 0.7589550000 0.2185130000
C -1.4527900000 2.7087700000 15.2642000000 -2.3833880000 0.6825000000 -1.2020680000
C 7.7222700000 2.5775000000 10.1074000000 -0.1950570000 1.6550800000 -0.0439040000
C -1.6072000000 6.3363300000 7.5656700000 -0.1319310000 -0.4874470000 -0.2738680000
C -3.0450400000 7.0721800000 2.5371900000 -2.0592030000 1.4099640000 1.2001260000
C 6.0896500000 5.4750700000 5.1383100000 1.7558540000 -0.8789680000 0.1296790000
C -3.0262000000 5.2986200000 0.0730200000 0.3996280000 -1.1881120000 -0.5104740000
C -1.4682700000 6.3308600000 17.6823000000 0.9539430000 -2.2714770000 1.1400440000
C -2.9289400000 7.2760100000 12.6756000000 -1.3189260000 -1.4491850000 -0.4291280000
C 6.0534600000 5.3397300000 15.1157000000 3.4332820000 1.0521080000 2.1295470000
C -3.0084900000 5.4473200000 10.0710000000 -1.7254590000 -0.3345500000 1.2797850000
C 4.5846000000 0.8635800000 7.5064200000 2.3566680000 2.0446340000 2.5281350000
C 3.0455400000 1.8137700000 2.4853200000 1.0651280000 -0.8007600000 0.2249350000
C -1.5445300000 8.0145500000 5.0795700000 -1.0980710000 0.3662180000 -0.6932660000
C -1.5418600000 7.9323300000 0.0756100000 0.5192940000 1.6411770000 -1.0472110000
C 4.6386400000 0.8995000000 17.7637000000 0.8090240000 -0.0851960000 -1.3204000000
C 3.1061700000 1.9451100000 12.7118000000 0.9926660000 -1.4870260000 -2.2204300000
C -1.4868200000 8.0146400000 15.1919000000 -0.0640580000 0.6094670000 -1.1439860000
C 3.0904100000 0.0033100000 9.9968300000 -0.3237380000 0.8509200000 2.4952570000
C 3.1542600000 3.5713700000 7.4938700000 -1.4260860000 -1.2160780000 1.5368010000
C 1.5597400000 4.4722700000 2.6036100000 -0.8654670000 -1.0112050000 -2.6690760000
C 1.3769100000 2.5615500000 4.9673900000 1.1005430000 0.5004750000 -0.2779540000
C 1.6197100000 2.6105900000 0.0039500000 0.4791150000 -0.5043750000 0.4340780000
C 3.0778300000 3.5386100000 17.7364000000 0.2683070000 1.7639070000 0.2653990000
C 1.5403500000 4.4752900000 12.6661000000 0.0481010000 0.7523570000 -0.7068960000
C 1.6645100000 2.5591500000 15.2283000000 -3.8177310000 2.5540820000 1.8226220000
C 1.5452300000 2.5750800000 10.1726000000 1.1368620000 -0.3168190000 -1.6565750000
C 1.5278700000 6.2907400000 7.6109100000 -0.5690020000 -0.8792330000 0.0340810000
C -0.0798300000 7.1833800000 2.5385000000 1.2149950000 -0.6160850000 0.6623800000
C -0.0556300000 5.3851900000 5.0630300000 1.9887920000 -0.0302740000 -0.3624610000
C -0.0040700000 5.3662000000 0.1085000000 1.4580790000 -1.5090670000 -0.2338610000
C 1.6054100000 6.2567000000 17.7463000000 0.1567630000 -0.0348180000 -0.6527960000
C 0.1220900000 7.1137600000 12.5873000000 -1.8309000000 1.2756420000 0.5560260000
C 0.1000800000 5.3897900000 15.1407000000 -1.0381300000 -1.1923030000 1.0212850000
C 0.0517200000 5.3275300000 10.1284000000 -1.8246060000 -0.5924650000 -2.0047040000
144
lattice="9.2642450220 0.0000000000 0.0000000000 -4.6321225110 8.0230715360 0.0000000000 0.0000000000 0.0000000000 20.2192890090" Properties=species:S:1:pos:R:3:force:R:3 energy=-1110.1420613600 virial="-24.2680011865 -7.5083164154 1.6551606627 -7.5083164154 -11.2322707902 2.4601209496 1.6551606627 2.4601209496 -3.9258135313"
Si 7.8762300000 0.8326600000 9.4825100000 -2.1654120000 -0.0350730000 0.8819810000
Si 6.2445400000 1.7413500000 4.4402000000 -0.6387460000 2.2180460000 0.1911720000
Si 6.2256900000 0.0451600000 7.0076200000 -0.4488460000 -1.2155740000 -0.2847440000
Si 6.1444200000 0.1299300000 1.8281100000 0.2330800000 -1.7546050000 1.7270460000
Si 7.7271000000 0.8808200000 19.5533000000 -0.1427690000 1.1649270000 2.4852290000
Si 6.1665500000 1.7146700000 14.6336000000 0.5334920000 -0.3401630000 -1.4024340000
Si 6.0728700000 0.0654700000 17.0539000000 1.5965570000 -0.7692320000 1.8529360000
Si 1.4688300000 7.8562900000 11.8831000000 1.0213540000 1.2641480000 0.9034200000
Si 6.0868700000 3.5267700000 9.5298800000 2.1659000000 -0.3461020000 0.1078280000
Si 4.6323600000 4.4334300000 4.3583500000 -0.8094370000 1.4118120000 1.9606840000
Si 4.7560500000 2.8292400000 7.0075500000 -1.8194690000 -2.1688190000 0.0026570000
Si 4.7163000000 2.7355800000 1.9451200000 -2.7275520000 -0.1402060000 -0.7234020000
Si 6.1246300000 3.7405200000 19.6181000000 0.7594900000 -5.1108800000 0.1061050000
Si 4.5037700000 4.5177700000 14.6114000000 2.8315210000 -0.0673900000 -0.7445300000
Si 4.6535200000 2.8015600000 16.9653000000 -0.1148630000 -0.5625530000 3.8067210000
Si 4.6445000000 2.5501300000 12.2328000000 0.9899010000 3.1354400000 -3.4231800000
Si 4.5463300000 6.1362800000 9.5791400000 1.7438340000 0.1281050000 -0.5182780000
Si 3.0272900000 7.1310500000 4.3256900000 0.8943100000 -1.0396230000 2.7024640000
Si 3.2402200000 5.3682900000 6.9701500000 -1.4723560000 -1.4505850000 0.1820310000
Si 3.1244800000 5.3271900000 1.7947300000 -0.7097120000 0.1742410000 2.1404890000
Si 4.8319200000 6.2959500000 19.5825000000 -3.9558900000 -0.1504770000 0.2747220000
Si 3.0238400000 7.1506400000 14.5633000000 -0.5930600000 -0.4815750000 -0.1138350000
Si 3.0364000000 5.3430100000 17.1317000000 -0.9475030000 -0.1190450000 -0.1828810000
Si 3.1643200000 5.2461400000 12.1356000000 -0.6071740000 1.2545700000 -0.9409040000
Si 1.5689600000 0.8341700000 9.3671000000 -0.1620880000 -0.6162240000 1.7263660000
Si 0.0703500000 1.7968600000 4.4407600000 -1.2144460000 0.8151410000 -0.2128570000
Si 4.5515600000 8.0054000000 6.9268200000 1.0101100000 0.2575570000 -0.4091560000
Si 9.1152500000 0.0062100000 1.9912000000 1.8038520000 1.1701380000 -1.1391710000
Si 1.5456900000 0.8383700000 19.5996000000 -1.5596540000 1.4225190000 1.2518580000
Si -0.2337600000 1.7420900000 14.4960000000 2.9050390000 -0.0530090000 2.4993980000
Si 9.2221800000 0.0554500000 17.0414000000 -0.9014400000 -0.8444390000 2.1574960000
Si -0.0093500000 0.0918300000 11.9895000000 -1.0263210000 -1.8405590000 0.6702490000
Si 0.0041300000 3.4460200000 9.3774100000 0.6362940000 1.0227220000 2.2901700000
Si -1.6047100000 4.4199400000 4.3895900000 1.1311410000 2.2715890000 2.0425630000
Si 7.6579100000 2.7077800000 6.9624100000 2.5440800000 0.2018710000 0.2253200000
Si -1.5194200000 2.8908500000 1.9520500000 -0.9900150000 -5.1624780000 -2.3932170000
Si -0.0398900000 3.6299200000 19.6909000000 0.8887740000 -1.1763280000 -1.9674960000
Si -1.5345100000 4.2997000000 14.5822000000 -2.0491550000 2.6132180000 -0.0164130000
Si 7.7274400000 2.6208200000 17.2287000000 -0.1740320000 3.0626000000 0.0814040000
Si -1.5154600000 2.7696300000 12.0011000000 -1.3149190000 -2.2597350000 0.2156300000
Si -1.5724200000 6.2295800000 9.5063400000 0.6828970000 -0.0573310000 -0.3013820000
Si -3.1690500000 7.1558900000 4.3283900000 0.6901270000 -0.5337430000 1.9058150000
Si -3.0272900000 5.4556100000 6.9164200000 -0.1927340000 -0.3859210000 0.8475260000
Si -3.0345700000 5.4286600000 1.9857000000 -1.2782130000 -0.3604080000 -1.1794180000
Si -1.3201000000 6.2367800000 19.7723000000 -3.6048200000 1.3725590000 -2.6345950000
Si -3.1262700000 7.3336500000 14.5145000000 0.6633660000 -2.6062210000 0.8664170000
Si 6.1002400000 5.3335200000 17.1855000000 1.2499860000 0.9313690000 -2.3904600000
Si -3.0658400000 5.3937200000 12.0616000000 0.2019910000 0.4513950000 -0.8447350000
Si 4.7178700000 0.8924300000 9.5669800000 -1.7195400000 -0.3532450000 -2.0224670000
Si 3.1126400000 1.7738400000 4.2711500000 -0.4496080000 0.6166790000 1.9907310000
Si -1.4311500000 7.9514900000 6.8993800000 -0.7729990000 1.3884290000 0.2715270000
Si 3.0691600000 0.0315600000 1.8505200000 -0.2663510000 0.2870410000 0.6994620000
Si 4.7158600000 0.9859300000 19.5869000000 -0.7429790000 0.1054910000 -0.0146430000
Si 3.0773600000 1.8977600000 14.6662000000 1.3284870000 -2.5257780000 -1.1305700000
Si 3.0856200000 0.1020600000 17.1915000000 -0.5743760000 -0.5586640000 -1.1469450000
Si 3.0888600000 0.0082600000 11.9881000000 -0.1580220000 -1.2651830000 -1.2033880000
Si 3.1231000000 3.4852200000 9.5603800000 -0.2322240000 -0.0338080000 -0.1816670000
Si 1.5853000000 4.4748400000 4.4449200000 -1.0574880000 0.0656960000 0.4998920000
Si 1.6096700000 2.4751200000 6.8840700000 0.2993820000 3.7098670000 1.8720720000
Si 1.4719500000 2.6971000000 1.8648700000 0.0125490000 0.5731840000 -0.5140970000
Si 3.0804100000 3.5286300000 19.5369000000 -0.2470930000 0.5428940000 1.8650370000