10240
Time=0.00000000 pbc="T T T" Lattice="49.87259964 0.00000000 0.10462240 0.00000000 49.40194528 0.00000000 -11.22960278 0.00000000 45.70700745" energy=-63042.13819122 virial="-1698.23940266 -0.00004962 -155.69727090 -0.00004962 -2082.31691870 0.00014726 -155.69727090 0.00014726 -2094.21941674" stress="-0.01271163 -0.00000761 -0.00136681 -0.00000761 -0.01613082 -0.00001597 -0.00136681 -0.00001597 -0.01624986" Properties=species:S:1:pos:R:3
Ga 30.39107647 27.78859422 33.18815156
Ga 41.44526907 27.78859422 29.84207289
Ga 36.62515143 29.33240501 33.20122936
Ga 35.21119412 29.33240501 29.82899509
Ga 33.68133631 27.78859422 32.57353552
Ga 38.15500924 27.78859422 30.45668893
Ga 39.91541126 29.33240501 32.58661332
Ga 31.92093428 29.33240501 30.44361112
O 32.27204335 27.78859422 29.27242894
O 39.56430220 27.78859422 33.75779551
O 38.50611830 29.33240501 29.28550674
O 33.33022724 29.33240501 33.74471771
O 36.20978825 27.78859422 30.12470025
O 35.62655730 27.78859422 32.90552420
O 42.44386320 29.33240501 30.13777805
O 29.39248234 29.33240501 32.89244640
O 40.07724450 27.78859422 31.15651506
O 31.75910104 27.78859422 31.87370939
O 33.84316955 29.33240501 31.14343726
O 37.99317600 29.33240501 31.88678719
Ga 28.98737613 27.78859422 38.90152749
Ga 40.04156872 27.78859422 35.55544882
Ga 35.22145108 29.33240501 38.91460529
Ga 33.80749377 29.33240501 35.54237102
Ga 32.27763596 27.78859422 38.28691146
Ga 36.75130889 27.78859422 36.17006486
Ga 38.51171092 29.33240501 38.29998926
Ga 30.51723393 29.33240501 36.15698706
O 30.86834300 27.78859422 34.98580487
O 38.16060185 27.78859422 39.47117144
O 37.10241795 29.33240501 34.99888267
O 31.92652690 29.33240501 39.45809364
O 34.80608790 27.78859422 35.83807618
O 34.22285695 27.78859422 38.61890013
O 41.04016286 29.33240501 35.85115398
O 27.98878199 29.33240501 38.60582233
O 38.67354415 27.78859422 36.86989099
O 30.35540069 27.78859422 37.58708532
O 32.43946920 29.33240501 36.85681319
O 36.58947565 29.33240501 37.60016312
Ga 27.58367578 27.78859422 44.61490343
Ga 38.63786838 27.78859422 41.26882475
Ga 33.81775073 29.33240501 44.62798123
Ga 32.40379342 29.33240501 41.25574695
Ga 30.87393561 27.78859422 44.00028739
Ga 35.34760854 27.78859422 41.88344079
Ga 37.10801057 29.33240501 44.01336519
Ga 29.11353359 29.33240501 41.87036299
O 29.46464265 27.78859422 40.69918080
O 36.75690150 27.78859422 45.18454737
O 35.69871761 29.33240501 40.71225860
O 30.52282655 29.33240501 45.17146957
O 33.40238755 27.78859422 41.55145212
O 32.81915660 27.78859422 44.33227606
O 39.63646251 29.33240501 41.56452992
O 26.58508165 29.33240501 44.31919826
O 37.26984381 27.78859422 42.58326692
O 28.95170035 27.78859422 43.30046125
O 31.03576885 29.33240501 42.57018912
O 35.18577530 29.33240501 43.31353905
Ga 37.40957821 27.78859422 4.62127191
Ga 48.46377081 27.78859422 1.27519323
Ga 43.64365316 29.33240501 4.63434971
Ga 42.22969585 29.33240501 1.26211543
Ga 40.69983804 27.78859422 4.00665587
Ga 45.17351097 27.78859422 1.88980927
Ga 46.93391300 29.33240501 4.01973367
Ga 38.93943602 29.33240501 1.87673147
O 39.29054508 27.78859422 0.70554928
O 46.58280393 27.78859422 5.19091585
O 45.52462004 29.33240501 0.71862708
O 40.34872898 29.33240501 5.17783805
O 43.22828998 27.78859422 1.55782060
O 42.64505903 27.78859422 4.33864454
O 49.46236494 29.33240501 1.57089840
O 36.41098408 29.33240501 4.32556674
O 47.09574624 27.78859422 2.58963540
O 38.77760278 27.78859422 3.30682973
O 40.86167128 29.33240501 2.57655760
O 45.01167773 29.33240501 3.31990753
Ga 36.00587786 27.78859422 10.33464784
Ga 47.06007046 27.78859422 6.98856916
Ga 42.23995282 29.33240501 10.34772564
Ga 40.82599550 29.33240501 6.97549136
Ga 39.29613770 27.78859422 9.72003180
Ga 43.76981062 27.78859422 7.60318520
Ga 45.53021265 29.33240501 9.73310960
Ga 37.53573567 29.33240501 7.59010740
O 37.88684473 27.78859422 6.41892521
O 45.17910359 27.78859422 10.90429178
O 44.12091969 29.33240501 6.43200302
O 38.94502863 29.33240501 10.89121398
O 41.82458964 27.78859422 7.27119653
O 41.24135868 27.78859422 10.05202047
O 48.05866459 29.33240501 7.28427433
O 35.00728373 29.33240501 10.03894267
O 45.69204589 27.78859422 8.30301134
O 37.37390243 27.78859422 9.02020566
O 39.45797094 29.33240501 8.28993354
O 43.60797739 29.33240501 9.03328346
Ga 34.60217751 27.78859422 16.04802377
Ga 45.65637011 27.78859422 12.70194509
Ga 40.83625247 29.33240501 16.06110157
Ga 39.42229516 29.33240501 12.68886729
Ga 37.89243735 27.78859422 15.43340773
Ga 42.36611028 27.78859422 13.31656113
Ga 44.12651230 29.33240501 15.44648553
Ga 36.13203532 29.33240501 13.30348333
O 36.48314439 27.78859422 12.13230115
O 43.77540324 27.78859422 16.61766771
O 42.71721934 29.33240501 12.14537895
O 37.54132828 29.33240501 16.60458991
O 40.42088929 27.78859422 12.98457246
O 39.83765834 27.78859422 15.76539640
O 46.65496424 29.33240501 12.99765026
O 33.60358338 29.33240501 15.75231860
O 44.28834554 27.78859422 14.01638727
O 35.97020208 27.78859422 14.73358159
O 38.05427059 29.33240501 14.00330947
O 42.20427704 29.33240501 14.74665939
Ga 33.19847717 27.78859422 21.76139970
Ga 44.25266976 27.78859422 18.41532102
Ga 39.43255212 29.33240501 21.77447750
Ga 38.01859481 29.33240501 18.40224322
Ga 36.48873700 27.78859422 21.14678366
Ga 40.96240993 27.78859422 19.02993706
Ga 42.72281196 29.33240501 21.15986146
Ga 34.72833498 29.33240501 19.01685926
O 35.07944404 27.78859422 17.84567708
O 42.37170289 27.78859422 22.33104365
O 41.31351899 29.33240501 17.85875488
O 36.13762794 29.33240501 22.31796585
O 39.01718894 27.78859422 18.69794839
O 38.43395799 27.78859422 21.47877233
O 45.25126390 29.33240501 18.71102619
O 32.19988304 29.33240501 21.46569453
O 42.88464520 27.78859422 19.72976320
O 34.56650174 27.78859422 20.44695752
O 36.65057024 29.33240501 19.71668540
O 40.80057669 29.33240501 20.46003532
Ga 31.79477682 27.78859422 27.47477563
Ga 42.84896942 27.78859422 24.12869696
Ga 38.02885177 29.33240501 27.48785343
Ga 36.61489446 29.33240501 24.11561915
Ga 35.08503666 27.78859422 26.86015959
Ga 39.55870958 27.78859422 24.74331299
Ga 41.31911161 29.33240501 26.87323739
Ga 33.32463463 29.33240501 24.73023519
O 33.67574369 27.78859422 23.55905301
O 40.96800254 27.78859422 28.04441958
O 39.90981865 29.33240501 23.57213081
O 34.73392759 29.33240501 28.03134178
O 37.61348859 27.78859422 24.41132432
O 37.03025764 27.78859422 27.19214826
O 43.84756355 29.33240501 24.42440212
O 30.79618269 29.33240501 27.17907046
O 41.48094485 27.78859422 25.44313913
O 33.16280139 27.78859422 26.16033346
O 35.24686989 29.33240501 25.43006133
O 39.39687634 29.33240501 26.17341126
Ga 30.39107647 30.87621580 33.18815156
Ga 41.44526907 30.87621580 29.84207289
Ga 36.62515143 32.42002659 33.20122936
Ga 35.21119412 32.42002659 29.82899509
Ga 33.68133631 30.87621580 32.57353552
Ga 38.15500924 30.87621580 30.45668893
Ga 39.91541126 32.42002659 32.58661332
Ga 31.92093428 32.42002659 30.44361112
O 32.27204335 30.87621580 29.27242894
O 39.56430220 30.87621580 33.75779551
O 38.50611830 32.42002659 29.28550674
O 33.33022724 32.42002659 33.74471771
O 36.20978825 30.87621580 30.12470025
O 35.62655730 30.87621580 32.90552420
O 42.44386320 32.42002659 30.13777805
O 29.39248234 32.42002659 32.89244640
O 40.07724450 30.87621580 31.15651506
O 31.75910104 30.87621580 31.87370939
O 33.84316955 32.42002659 31.14343726
O 37.99317600 32.42002659 31.88678719
Ga 28.98737613 30.87621580 38.90152749
Ga 40.04156872 30.87621580 35.55544882
Ga 35.22145108 32.42002659 38.91460529
Ga 33.80749377 32.42002659 35.54237102
Ga 32.27763596 30.87621580 38.28691146
Ga 36.75130889 30.87621580 36.17006486
Ga 38.51171092 32.42002659 38.29998926
Ga 30.51723393 32.42002659 36.15698706
O 30.86834300 30.87621580 34.98580487
O 38.16060185 30.87621580 39.47117144
O 37.10241795 32.42002659 34.99888267
O 31.92652690 32.42002659 39.45809364
O 34.80608790 30.87621580 35.83807618
O 34.22285695 30.87621580 38.61890013
O 41.04016286 32.42002659 35.85115398
O 27.98878199 32.42002659 38.60582233
O 38.67354415 30.87621580 36.86989099
O 30.35540069 30.87621580 37.58708532
O 32.43946920 32.42002659 36.85681319
O 36.58947565 32.42002659 37.60016312
Ga 27.58367578 30.87621580 44.61490343
Ga 38.63786838 30.87621580 41.26882475
Ga 33.81775073 32.42002659 44.62798123
Ga 32.40379342 32.42002659 41.25574695
Ga 30.87393561 30.87621580 44.00028739
Ga 35.34760854 30.87621580 41.88344079
Ga 37.10801057 32.42002659 44.01336519
Ga 29.11353359 32.42002659 41.87036299
O 29.46464265 30.87621580 40.69918080
O 36.75690150 30.87621580 45.18454737
O 35.69871761 32.42002659 40.71225860
O 30.52282655 32.42002659 45.17146957
O 33.40238755 30.87621580 41.55145212
O 32.81915660 30.87621580 44.33227606
O 39.63646251 32.42002659 41.56452992
O 26.58508165 32.42002659 44.31919826
O 37.26984381 30.87621580 42.58326692
O 28.95170035 30.87621580 43.30046125
O 31.03576885 32.42002659 42.57018912
O 35.18577530 32.42002659 43.31353905
Ga 37.40957821 30.87621580 4.62127191
Ga 48.46377081 30.87621580 1.27519323
Ga 43.64365316 32.42002659 4.63434971
Ga 42.22969585 32.42002659 1.26211543
Ga 40.69983804 30.87621580 4.00665587
Ga 45.17351097 30.87621580 1.88980927
Ga 46.93391300 32.42002659 4.01973367
Ga 38.93943602 32.42002659 1.87673147
O 39.29054508 30.87621580 0.70554928
O 46.58280393 30.87621580 5.19091585
O 45.52462004 32.42002659 0.71862708
O 40.34872898 32.42002659 5.17783805
O 43.22828998 30.87621580 1.55782060
O 42.64505903 30.87621580 4.33864454
O 49.46236494 32.42002659 1.57089840
O 36.41098408 32.42002659 4.32556674
O 47.09574624 30.87621580 2.58963540
O 38.77760278 30.87621580 3.30682973
O 40.86167128 32.42002659 2.57655760
O 45.01167773 32.42002659 3.31990753
Ga 36.00587786 30.87621580 10.33464784
Ga 47.06007046 30.87621580 6.98856916
Ga 42.23995282 32.42002659 10.34772564
Ga 40.82599550 32.42002659 6.97549136
Ga 39.29613770 30.87621580 9.72003180
Ga 43.76981062 30.87621580 7.60318520
Ga 45.53021265 32.42002659 9.73310960
Ga 37.53573567 32.42002659 7.59010740
O 37.88684473 30.87621580 6.41892521
O 45.17910359 30.87621580 10.90429178
O 44.12091969 32.42002659 6.43200302
O 38.94502863 32.42002659 10.89121398
O 41.82458964 30.87621580 7.27119653
O 41.24135868 30.87621580 10.05202047
O 48.05866459 32.42002659 7.28427433
O 35.00728373 32.42002659 10.03894267
O 45.69204589 30.87621580 8.30301134
O 37.37390243 30.87621580 9.02020566
O 39.45797094 32.42002659 8.28993354
O 43.60797739 32.42002659 9.03328346
Ga 34.60217751 30.87621580 16.04802377
Ga 45.65637011 30.87621580 12.70194509
Ga 40.83625247 32.42002659 16.06110157
Ga 39.42229516 32.42002659 12.68886729
Ga 37.89243735 30.87621580 15.43340773
Ga 42.36611028 30.87621580 13.31656113
Ga 44.12651230 32.42002659 15.44648553
Ga 36.13203532 32.42002659 13.30348333
O 36.48314439 30.87621580 12.13230115
O 43.77540324 30.87621580 16.61766771
O 42.71721934 32.42002659 12.14537895
O 37.54132828 32.42002659 16.60458991
O 40.42088929 30.87621580 12.98457246
O 39.83765834 30.87621580 15.76539640
O 46.65496424 32.42002659 12.99765026
O 33.60358338 32.42002659 15.75231860
O 44.28834554 30.87621580 14.01638727
O 35.97020208 30.87621580 14.73358159
O 38.05427059 32.42002659 14.00330947
O 42.20427704 32.42002659 14.74665939
Ga 33.19847717 30.87621580 21.76139970
Ga 44.25266976 30.87621580 18.41532102
Ga 39.43255212 32.42002659 21.77447750
Ga 38.01859481 32.42002659 18.40224322
Ga 36.48873700 30.87621580 21.14678366
Ga 40.96240993 30.87621580 19.02993706
Ga 42.72281196 32.42002659 21.15986146
Ga 34.72833498 32.42002659 19.01685926
O 35.07944404 30.87621580 17.84567708
O 42.37170289 30.87621580 22.33104365
O 41.31351899 32.42002659 17.85875488
O 36.13762794 32.42002659 22.31796585
O 39.01718894 30.87621580 18.69794839
O 38.43395799 30.87621580 21.47877233
O 45.25126390 32.42002659 18.71102619
O 32.19988304 32.42002659 21.46569453
O 42.88464520 30.87621580 19.72976320
O 34.56650174 30.87621580 20.44695752
O 36.65057024 32.42002659 19.71668540
O 40.80057669 32.42002659 20.46003532
Ga 31.79477682 30.87621580 27.47477563
Ga 42.84896942 30.87621580 24.12869696
Ga 38.02885177 32.42002659 27.48785343
Ga 36.61489446 32.42002659 24.11561915
Ga 35.08503666 30.87621580 26.86015959
Ga 39.55870958 30.87621580 24.74331299
Ga 41.31911161 32.42002659 26.87323739
Ga 33.32463463 32.42002659 24.73023519
O 33.67574369 30.87621580 23.55905301
O 40.96800254 30.87621580 28.04441958
O 39.90981865 32.42002659 23.57213081
O 34.73392759 32.42002659 28.03134178
O 37.61348859 30.87621580 24.41132432
O 37.03025764 30.87621580 27.19214826
O 43.84756355 32.42002659 24.42440212
O 30.79618269 32.42002659 27.17907046
O 41.48094485 30.87621580 25.44313913
O 33.16280139 30.87621580 26.16033346
O 35.24686989 32.42002659 25.43006133
O 39.39687634 32.42002659 26.17341126
Ga 30.39107647 33.96383738 33.18815156
Ga 41.44526907 33.96383738 29.84207289
Ga 36.62515143 35.50764817 33.20122936
Ga 35.21119412 35.50764817 29.82899509
Ga 33.68133631 33.96383738 32.57353552
Ga 38.15500924 33.96383738 30.45668893
Ga 39.91541126 35.50764817 32.58661332
Ga 31.92093428 35.50764817 30.44361112
O 32.27204335 33.96383738 29.27242894
O 39.56430220 33.96383738 33.75779551
O 38.50611830 35.50764817 29.28550674
O 33.33022724 35.50764817 33.74471771
O 36.20978825 33.96383738 30.12470025
O 35.62655730 33.96383738 32.90552420
O 42.44386320 35.50764817 30.13777805
O 29.39248234 35.50764817 32.89244640
O 40.07724450 33.96383738 31.15651506
O 31.75910104 33.96383738 31.87370939
O 33.84316955 35.50764817 31.14343726
O 37.99317600 35.50764817 31.88678719
Ga 28.98737613 33.96383738 38.90152749
Ga 40.04156872 33.96383738 35.55544882
Ga 35.22145108 35.50764817 38.91460529
Ga 33.80749377 35.50764817 35.54237102
Ga 32.27763596 33.96383738 38.28691146
Ga 36.75130889 33.96383738 36.17006486
Ga 38.51171092 35.50764817 38.29998926
Ga 30.51723393 35.50764817 36.15698706
O 30.86834300 33.96383738 34.98580487
O 38.16060185 33.96383738 39.47117144
O 37.10241795 35.50764817 34.99888267
O 31.92652690 35.50764817 39.45809364
O 34.80608790 33.96383738 35.83807618
O 34.22285695 33.96383738 38.61890013
O 41.04016286 35.50764817 35.85115398
O 27.98878199 35.50764817 38.60582233
O 38.67354415 33.96383738 36.86989099
O 30.35540069 33.96383738 37.58708532
O 32.43946920 35.50764817 36.85681319
O 36.58947565 35.50764817 37.60016312
Ga 27.58367578 33.96383738 44.61490343
Ga 38.63786838 33.96383738 41.26882475
Ga 33.81775073 35.50764817 44.62798123
Ga 32.40379342 35.50764817 41.25574695
Ga 30.87393561 33.96383738 44.00028739
Ga 35.34760854 33.96383738 41.88344079
Ga 37.10801057 35.50764817 44.01336519
Ga 29.11353359 35.50764817 41.87036299
O 29.46464265 33.96383738 40.69918080
O 36.75690150 33.96383738 45.18454737
O 35.69871761 35.50764817 40.71225860
O 30.52282655 35.50764817 45.17146957
O 33.40238755 33.96383738 41.55145212
O 32.81915660 33.96383738 44.33227606
O 39.63646251 35.50764817 41.56452992
O 26.58508165 35.50764817 44.31919826
O 37.26984381 33.96383738 42.58326692
O 28.95170035 33.96383738 43.30046125
O 31.03576885 35.50764817 42.57018912
O 35.18577530 35.50764817 43.31353905
Ga 37.40957821 33.96383738 4.62127191
Ga 48.46377081 33.96383738 1.27519323
Ga 43.64365316 35.50764817 4.63434971
Ga 42.22969585 35.50764817 1.26211543
Ga 40.69983804 33.96383738 4.00665587
Ga 45.17351097 33.96383738 1.88980927
Ga 46.93391300 35.50764817 4.01973367
Ga 38.93943602 35.50764817 1.87673147
O 39.29054508 33.96383738 0.70554928
O 46.58280393 33.96383738 5.19091585
O 45.52462004 35.50764817 0.71862708
O 40.34872898 35.50764817 5.17783805
O 43.22828998 33.96383738 1.55782060
O 42.64505903 33.96383738 4.33864454
O 49.46236494 35.50764817 1.57089840
O 36.41098408 35.50764817 4.32556674
O 47.09574624 33.96383738 2.58963540
O 38.77760278 33.96383738 3.30682973
O 40.86167128 35.50764817 2.57655760
O 45.01167773 35.50764817 3.31990753
Ga 36.00587786 33.96383738 10.33464784
Ga 47.06007046 33.96383738 6.98856916
Ga 42.23995282 35.50764817 10.34772564
Ga 40.82599550 35.50764817 6.97549136
Ga 39.29613770 33.96383738 9.72003180
Ga 43.76981062 33.96383738 7.60318520
Ga 45.53021265 35.50764817 9.73310960
Ga 37.53573567 35.50764817 7.59010740
O 37.88684473 33.96383738 6.41892521
O 45.17910359 33.96383738 10.90429178
O 44.12091969 35.50764817 6.43200302
O 38.94502863 35.50764817 10.89121398
O 41.82458964 33.96383738 7.27119653
O 41.24135868 33.96383738 10.05202047
O 48.05866459 35.50764817 7.28427433
O 35.00728373 35.50764817 10.03894267
O 45.69204589 33.96383738 8.30301134
O 37.37390243 33.96383738 9.02020566
O 39.45797094 35.50764817 8.28993354
O 43.60797739 35.50764817 9.03328346
Ga 34.60217751 33.96383738 16.04802377
Ga 45.65637011 33.96383738 12.70194509
Ga 40.83625247 35.50764817 16.06110157
Ga 39.42229516 35.50764817 12.68886729
Ga 37.89243735 33.96383738 15.43340773
Ga 42.36611028 33.96383738 13.31656113
Ga 44.12651230 35.50764817 15.44648553
Ga 36.13203532 35.50764817 13.30348333
O 36.48314439 33.96383738 12.13230115
O 43.77540324 33.96383738 16.61766771
O 42.71721934 35.50764817 12.14537895
O 37.54132828 35.50764817 16.60458991
O 40.42088929 33.96383738 12.98457246
O 39.83765834 33.96383738 15.76539640
O 46.65496424 35.50764817 12.99765026
O 33.60358338 35.50764817 15.75231860
O 44.28834554 33.96383738 14.01638727
O 35.97020208 33.96383738 14.73358159
O 38.05427059 35.50764817 14.00330947
O 42.20427704 35.50764817 14.74665939
Ga 33.19847717 33.96383738 21.76139970
Ga 44.25266976 33.96383738 18.41532102
Ga 39.43255212 35.50764817 21.77447750
Ga 38.01859481 35.50764817 18.40224322
Ga 36.48873700 33.96383738 21.14678366
Ga 40.96240993 33.96383738 19.02993706
Ga 42.72281196 35.50764817 21.15986146
Ga 34.72833498 35.50764817 19.01685926
O 35.07944404 33.96383738 17.84567708
O 42.37170289 33.96383738 22.33104365
O 41.31351899 35.50764817 17.85875488
O 36.13762794 35.50764817 22.31796585
O 39.01718894 33.96383738 18.69794839
O 38.43395799 33.96383738 21.47877233
O 45.25126390 35.50764817 18.71102619
O 32.19988304 35.50764817 21.46569453
O 42.88464520 33.96383738 19.72976320
O 34.56650174 33.96383738 20.44695752
O 36.65057024 35.50764817 19.71668540
O 40.80057669 35.50764817 20.46003532
Ga 31.79477682 33.96383738 27.47477563
Ga 42.84896942 33.96383738 24.12869696
Ga 38.02885177 35.50764817 27.48785343
Ga 36.61489446 35.50764817 24.11561915
Ga 35.08503666 33.96383738 26.86015959
Ga 39.55870958 33.96383738 24.74331299
Ga 41.31911161 35.50764817 26.87323739
Ga 33.32463463 35.50764817 24.73023519
O 33.67574369 33.96383738 23.55905301
O 40.96800254 33.96383738 28.04441958
O 39.90981865 35.50764817 23.57213081
O 34.73392759 35.50764817 28.03134178
O 37.61348859 33.96383738 24.41132432
O 37.03025764 33.96383738 27.19214826
O 43.84756355 35.50764817 24.42440212
O 30.79618269 35.50764817 27.17907046
O 41.48094485 33.96383738 25.44313913
O 33.16280139 33.96383738 26.16033346
O 35.24686989 35.50764817 25.43006133
O 39.39687634 35.50764817 26.17341126
Ga 30.39107647 37.05145896 33.18815156
Ga 41.44526907 37.05145896 29.84207289
Ga 36.62515143 38.59526975 33.20122936
Ga 35.21119412 38.59526975 29.82899509
Ga 33.68133631 37.05145896 32.57353552
Ga 38.15500924 37.05145896 30.45668893
Ga 39.91541126 38.59526975 32.58661332
Ga 31.92093428 38.59526975 30.44361112
O 32.27204335 37.05145896 29.27242894
O 39.56430220 37.05145896 33.75779551
O 38.50611830 38.59526975 29.28550674
O 33.33022724 38.59526975 33.74471771
O 36.20978825 37.05145896 30.12470025
O 35.62655730 37.05145896 32.90552420
O 42.44386320 38.59526975 30.13777805
O 29.39248234 38.59526975 32.89244640
O 40.07724450 37.05145896 31.15651506
O 31.75910104 37.05145896 31.87370939
O 33.84316955 38.59526975 31.14343726
O 37.99317600 38.59526975 31.88678719
Ga 28.98737613 37.05145896 38.90152749
Ga 40.04156872 37.05145896 35.55544882
Ga 35.22145108 38.59526975 38.91460529
Ga 33.80749377 38.59526975 35.54237102
Ga 32.27763596 37.05145896 38.28691146
Ga 36.75130889 37.05145896 36.17006486
Ga 38.51171092 38.59526975 38.29998926
Ga 30.51723393 38.59526975 36.15698706
O 30.86834300 37.05145896 34.98580487
O 38.16060185 37.05145896 39.47117144
O 37.10241795 38.59526975 34.99888267
O 31.92652690 38.59526975 39.45809364
O 34.80608790 37.05145896 35.83807618
O 34.22285695 37.05145896 38.61890013
O 41.04016285 38.59526975 35.85115398
O 27.98878199 38.59526975 38.60582233
O 38.67354415 37.05145896 36.86989099
O 30.35540069 37.05145896 37.58708532
O 32.43946920 38.59526975 36.85681319
O 36.58947565 38.59526975 37.60016312
Ga 27.58367578 37.05145896 44.61490343
Ga 38.63786838 37.05145896 41.26882475
Ga 33.81775073 38.59526975 44.62798123
Ga 32.40379342 38.59526975 41.25574695
Ga 30.87393561 37.05145896 44.00028739
Ga 35.34760854 37.05145896 41.88344079
Ga 37.10801057 38.59526975 44.01336519
Ga 29.11353359 38.59526975 41.87036299
O 29.46464265 37.05145896 40.69918080
O 36.75690150 37.05145896 45.18454737
O 35.69871761 38.59526975 40.71225860
O 30.52282655 38.59526975 45.17146957
O 33.40238755 37.05145896 41.55145212
O 32.81915660 37.05145896 44.33227606
O 39.63646251 38.59526975 41.56452992
O 26.58508165 38.59526975 44.31919826
O 37.26984381 37.05145896 42.58326692
O 28.95170035 37.05145896 43.30046125
O 31.03576885 38.59526975 42.57018912
O 35.18577530 38.59526975 43.31353905
Ga 37.40957821 37.05145896 4.62127191
Ga 48.46377081 37.05145896 1.27519323
Ga 43.64365316 38.59526975 4.63434971
Ga 42.22969585 38.59526975 1.26211543
Ga 40.69983804 37.05145896 4.00665587
Ga 45.17351097 37.05145896 1.88980927
Ga 46.93391300 38.59526975 4.01973367
Ga 38.93943602 38.59526975 1.87673147
O 39.29054508 37.05145896 0.70554928
O 46.58280393 37.05145896 5.19091585
O 45.52462004 38.59526975 0.71862708
O 40.34872898 38.59526975 5.17783805
O 43.22828998 37.05145896 1.55782060
O 42.64505903 37.05145896 4.33864454
O 49.46236494 38.59526975 1.57089840
O 36.41098408 38.59526975 4.32556674
O 47.09574624 37.05145896 2.58963540
O 38.77760278 37.05145896 3.30682973
O 40.86167128 38.59526975 2.57655760
O 45.01167773 38.59526975 3.31990753
Ga 36.00587786 37.05145896 10.33464784
Ga 47.06007046 37.05145896 6.98856916
Ga 42.23995282 38.59526975 10.34772564
Ga 40.82599550 38.59526975 6.97549136
Ga 39.29613770 37.05145896 9.72003180
Ga 43.76981062 37.05145896 7.60318520
Ga 45.53021265 38.59526975 9.73310960
Ga 37.53573567 38.59526975 7.59010740
O 37.88684473 37.05145896 6.41892521
O 45.17910359 37.05145896 10.90429178
O 44.12091969 38.59526975 6.43200302
O 38.94502863 38.59526975 10.89121398
O 41.82458964 37.05145896 7.27119653
O 41.24135868 37.05145896 10.05202047
O 48.05866459 38.59526975 7.28427433
O 35.00728373 38.59526975 10.03894267
O 45.69204589 37.05145896 8.30301134
O 37.37390243 37.05145896 9.02020566
O 39.45797094 38.59526975 8.28993354
O 43.60797739 38.59526975 9.03328346
Ga 34.60217751 37.05145896 16.04802377
Ga 45.65637011 37.05145896 12.70194509
Ga 40.83625247 38.59526975 16.06110157
Ga 39.42229516 38.59526975 12.68886729
Ga 37.89243735 37.05145896 15.43340773
Ga 42.36611028 37.05145896 13.31656113
Ga 44.12651230 38.59526975 15.44648553
Ga 36.13203532 38.59526975 13.30348333
O 36.48314439 37.05145896 12.13230115
O 43.77540324 37.05145896 16.61766771
O 42.71721934 38.59526975 12.14537895
O 37.54132828 38.59526975 16.60458991
O 40.42088929 37.05145896 12.98457246
O 39.83765834 37.05145896 15.76539640
O 46.65496424 38.59526975 12.99765026
O 33.60358338 38.59526975 15.75231860
O 44.28834554 37.05145896 14.01638727
O 35.97020208 37.05145896 14.73358159
O 38.05427059 38.59526975 14.00330947
O 42.20427704 38.59526975 14.74665939
Ga 33.19847717 37.05145896 21.76139970
Ga 44.25266976 37.05145896 18.41532102
Ga 39.43255212 38.59526975 21.77447750
Ga 38.01859481 38.59526975 18.40224322
Ga 36.48873700 37.05145896 21.14678366
Ga 40.96240993 37.05145896 19.02993706
Ga 42.72281196 38.59526975 21.15986146
Ga 34.72833498 38.59526975 19.01685926
O 35.07944404 37.05145896 17.84567708
O 42.37170289 37.05145896 22.33104365
O 41.31351899 38.59526975 17.85875488
O 36.13762794 38.59526975 22.31796585
O 39.01718894 37.05145896 18.69794839
O 38.43395799 37.05145896 21.47877233
O 45.25126390 38.59526975 18.71102619
O 32.19988304 38.59526975 21.46569453
O 42.88464520 37.05145896 19.72976320
O 34.56650174 37.05145896 20.44695752
O 36.65057024 38.59526975 19.71668540
O 40.80057669 38.59526975 20.46003532
Ga 31.79477682 37.05145896 27.47477563
Ga 42.84896942 37.05145896 24.12869696
Ga 38.02885177 38.59526975 27.48785343
Ga 36.61489446 38.59526975 24.11561915
Ga 35.08503666 37.05145896 26.86015959
Ga 39.55870958 37.05145896 24.74331299
Ga 41.31911161 38.59526975 26.87323739
Ga 33.32463463 38.59526975 24.73023519
O 33.67574369 37.05145896 23.55905301
O 40.96800254 37.05145896 28.04441958
O 39.90981865 38.59526975 23.57213081
O 34.73392759 38.59526975 28.03134178
O 37.61348859 37.05145896 24.41132432
O 37.03025764 37.05145896 27.19214826
O 43.84756355 38.59526975 24.42440212
O 30.79618269 38.59526975 27.17907046
O 41.48094485 37.05145896 25.44313913
O 33.16280139 37.05145896 26.16033346
O 35.24686989 38.59526975 25.43006133
O 39.39687634 38.59526975 26.17341126
Ga 30.39107647 40.13908054 33.18815156
Ga 41.44526907 40.13908054 29.84207289
Ga 36.62515143 41.68289133 33.20122936
Ga 35.21119412 41.68289133 29.82899509
Ga 33.68133631 40.13908054 32.57353552
Ga 38.15500924 40.13908054 30.45668893
Ga 39.91541126 41.68289133 32.58661332
Ga 31.92093428 41.68289133 30.44361112
O 32.27204335 40.13908054 29.27242894
O 39.56430220 40.13908054 33.75779551
O 38.50611830 41.68289133 29.28550674
O 33.33022724 41.68289133 33.74471771
O 36.20978825 40.13908054 30.12470025
O 35.62655730 40.13908054 32.90552420
O 42.44386320 41.68289133 30.13777805
O 29.39248234 41.68289133 32.89244640
O 40.07724450 40.13908054 31.15651506
O 31.75910104 40.13908054 31.87370939
O 33.84316955 41.68289133 31.14343726
O 37.99317600 41.68289133 31.88678719
Ga 28.98737613 40.13908054 38.90152749
Ga 40.04156872 40.13908054 35.55544882
Ga 35.22145108 41.68289133 38.91460529
Ga 33.80749377 41.68289133 35.54237102
Ga 32.27763596 40.13908054 38.28691146
Ga 36.75130889 40.13908054 36.17006486
Ga 38.51171092 41.68289133 38.29998926
Ga 30.51723393 41.68289133 36.15698706
O 30.86834300 40.13908054 34.98580487
O 38.16060185 40.13908054 39.47117144
O 37.10241795 41.68289133 34.99888267
O 31.92652690 41.68289133 39.45809364
O 34.80608790 40.13908054 35.83807618
O 34.22285695 40.13908054 38.61890013
O 41.04016285 41.68289133 35.85115398
O 27.98878199 41.68289133 38.60582233
O 38.67354415 40.13908054 36.86989099
O 30.35540069 40.13908054 37.58708532
O 32.43946920 41.68289133 36.85681319
O 36.58947565 41.68289133 37.60016312
Ga 27.58367578 40.13908054 44.61490343
Ga 38.63786838 40.13908054 41.26882475
Ga 33.81775073 41.68289133 44.62798123
Ga 32.40379342 41.68289133 41.25574695
Ga 30.87393561 40.13908054 44.00028739
Ga 35.34760854 40.13908054 41.88344079
Ga 37.10801057 41.68289133 44.01336519
Ga 29.11353359 41.68289133 41.87036299
O 29.46464265 40.13908054 40.69918080
O 36.75690150 40.13908054 45.18454737
O 35.69871761 41.68289133 40.71225860
O 30.52282655 41.68289133 45.17146957
O 33.40238755 40.13908054 41.55145212
O 32.81915660 40.13908054 44.33227606
O 39.63646251 41.68289133 41.56452992
O 26.58508165 41.68289133 44.31919826
O 37.26984381 40.13908054 42.58326692
O 28.95170035 40.13908054 43.30046125
O 31.03576885 41.68289133 42.57018912
O 35.18577530 41.68289133 43.31353905
Ga 37.40957821 40.13908054 4.62127191
Ga 48.46377081 40.13908054 1.27519323
Ga 43.64365316 41.68289133 4.63434971
Ga 42.22969585 41.68289133 1.26211543
Ga 40.69983804 40.13908054 4.00665587
Ga 45.17351097 40.13908054 1.88980927
Ga 46.93391300 41.68289133 4.01973367
Ga 38.93943602 41.68289133 1.87673147
O 39.29054508 40.13908054 0.70554928
O 46.58280393 40.13908054 5.19091585
O 45.52462004 41.68289133 0.71862708
O 40.34872898 41.68289133 5.17783805
O 43.22828998 40.13908054 1.55782060
O 42.64505903 40.13908054 4.33864454
O 49.46236494 41.68289133 1.57089840
O 36.41098408 41.68289133 4.32556674
O 47.09574624 40.13908054 2.58963540
O 38.77760278 40.13908054 3.30682973
O 40.86167128 41.68289133 2.57655760
O 45.01167773 41.68289133 3.31990753
Ga 36.00587786 40.13908054 10.33464784
Ga 47.06007046 40.13908054 6.98856916
Ga 42.23995282 41.68289133 10.34772564
Ga 40.82599550 41.68289133 6.97549136
Ga 39.29613770 40.13908054 9.72003180
Ga 43.76981062 40.13908054 7.60318520
Ga 45.53021265 41.68289133 9.73310960
Ga 37.53573567 41.68289133 7.59010740
O 37.88684473 40.13908054 6.41892521
O 45.17910359 40.13908054 10.90429178
O 44.12091969 41.68289133 6.43200302
O 38.94502863 41.68289133 10.89121398
O 41.82458964 40.13908054 7.27119653
O 41.24135868 40.13908054 10.05202047
O 48.05866459 41.68289133 7.28427433
O 35.00728373 41.68289133 10.03894267
O 45.69204589 40.13908054 8.30301134
O 37.37390243 40.13908054 9.02020566
O 39.45797094 41.68289133 8.28993354
O 43.60797739 41.68289133 9.03328346
Ga 34.60217751 40.13908054 16.04802377
Ga 45.65637011 40.13908054 12.70194509
Ga 40.83625247 41.68289133 16.06110157
Ga 39.42229516 41.68289133 12.68886729
Ga 37.89243735 40.13908054 15.43340773
Ga 42.36611028 40.13908054 13.31656113
Ga 44.12651230 41.68289133 15.44648553
Ga 36.13203532 41.68289133 13.30348333
O 36.48314439 40.13908054 12.13230115
O 43.77540324 40.13908054 16.61766771
O 42.71721934 41.68289133 12.14537895
O 37.54132828 41.68289133 16.60458991
O 40.42088929 40.13908054 12.98457246
O 39.83765834 40.13908054 15.76539640
O 46.65496424 41.68289133 12.99765026
O 33.60358338 41.68289133 15.75231860
O 44.28834554 40.13908054 14.01638727
O 35.97020208 40.13908054 14.73358159
O 38.05427059 41.68289133 14.00330947
O 42.20427704 41.68289133 14.74665939
Ga 33.19847717 40.13908054 21.76139970
Ga 44.25266976 40.13908054 18.41532102
Ga 39.43255212 41.68289133 21.77447750
Ga 38.01859481 41.68289133 18.40224322
Ga 36.48873700 40.13908054 21.14678366
Ga 40.96240993 40.13908054 19.02993706
Ga 42.72281196 41.68289133 21.15986146
Ga 34.72833498 41.68289133 19.01685926
O 35.07944404 40.13908054 17.84567708
O 42.37170289 40.13908054 22.33104365
O 41.31351899 41.68289133 17.85875488
O 36.13762794 41.68289133 22.31796585
O 39.01718894 40.13908054 18.69794839