       N       E                     dE             d eps       ncg     rms          rms(c)
DAV:   1     0.537726093063E+04    0.53773E+04   -0.14462E+05  7432   0.194E+03
DAV:   2     0.110525124306E+04   -0.42720E+04   -0.41006E+04  8536   0.548E+02
DAV:   3    -0.700446525262E+02   -0.11753E+04   -0.11234E+04  9552   0.254E+02
DAV:   4    -0.256431613274E+03   -0.18639E+03   -0.18126E+03  9504   0.957E+01
DAV:   5    -0.264670001248E+03   -0.82384E+01   -0.81821E+01  9784   0.230E+01    0.368E+01
DAV:   6    -0.179860541804E+04   -0.15339E+04   -0.77183E+03 13588   0.583E+02    0.180E+02
DAV:   7     0.128464951025E+03    0.19271E+04   -0.12200E+04 12284   0.437E+02    0.389E+01
DAV:   8    -0.210946636503E+03   -0.33941E+03   -0.35713E+03 10328   0.162E+02    0.169E+01
DAV:   9    -0.238538251758E+03   -0.27592E+02   -0.41046E+02  9784   0.595E+01    0.193E+01
DAV:  10    -0.246335325178E+03   -0.77971E+01   -0.31023E+01  9552   0.211E+01    0.159E+01
DAV:  11    -0.243469495386E+03    0.28658E+01   -0.78171E+00 11248   0.197E+01    0.104E+01
DAV:  12    -0.243788019280E+03   -0.31852E+00   -0.30096E+00  8944   0.733E+00    0.889E+00
DAV:  13    -0.243050716508E+03    0.73730E+00   -0.57527E+00 11200   0.129E+01    0.135E+01
DAV:  14    -0.241741327484E+03    0.13094E+01   -0.31656E+00  9840   0.595E+00    0.151E+01
DAV:  15    -0.241264144809E+03    0.47718E+00   -0.95615E-01  9488   0.316E+00    0.126E+01
DAV:  16    -0.239623345214E+03    0.16408E+01   -0.14241E-01  9096   0.269E+00    0.121E+01
DAV:  17    -0.234837252445E+03    0.47861E+01   -0.50487E-01 10896   0.594E+00    0.102E+01
DAV:  18    -0.230054863804E+03    0.47824E+01   -0.11238E+00 10984   0.752E+00    0.655E+00
DAV:  19    -0.228949510854E+03    0.11054E+01   -0.91731E-01 11632   0.109E+01    0.834E+00
DAV:  20    -0.227535878800E+03    0.14136E+01   -0.38864E-01  9736   0.454E+00    0.723E+00
DAV:  21    -0.226315833871E+03    0.12200E+01   -0.17211E-01 10520   0.434E+00    0.638E+00
DAV:  22    -0.225612661554E+03    0.70317E+00   -0.13049E-01 10840   0.349E+00    0.583E+00
DAV:  23    -0.224856827705E+03    0.75583E+00   -0.72999E-02 10720   0.483E+00    0.525E+00
DAV:  24    -0.223502960911E+03    0.13539E+01   -0.31610E-01 10848   0.106E+01    0.355E+00
DAV:  25    -0.223309814406E+03    0.19315E+00   -0.35716E-01  9388   0.215E+00    0.303E+00
DAV:  26    -0.223255744560E+03    0.54070E-01   -0.42098E-02 10080   0.665E-01    0.291E+00
DAV:  27    -0.223168962828E+03    0.86782E-01   -0.39132E-03 10272   0.583E-01    0.278E+00
DAV:  28    -0.223290447173E+03   -0.12148E+00   -0.41782E-02 12896   0.579E+00    0.180E+00
DAV:  29    -0.222891374657E+03    0.39907E+00   -0.11818E-01 10176   0.455E+00    0.170E+00
DAV:  30    -0.222888555903E+03    0.28188E-02   -0.42418E-02  8704   0.578E-01    0.168E+00
DAV:  31    -0.222847664146E+03    0.40892E-01   -0.20424E-03  9968   0.587E-01    0.169E+00
DAV:  32    -0.222685488136E+03    0.16218E+00   -0.12923E-02 11984   0.278E+00    0.119E+00
DAV:  33    -0.222551431884E+03    0.13406E+00   -0.35916E-02 10976   0.256E+00    0.998E-01
DAV:  34    -0.222552586380E+03   -0.11545E-02   -0.16091E-02  8920   0.763E-01    0.647E-01
DAV:  35    -0.222538788268E+03    0.13798E-01   -0.51067E-03 11440   0.680E-01    0.450E-01
DAV:  36    -0.222528623472E+03    0.10165E-01   -0.27683E-03 10480   0.351E-01    0.407E-01
DAV:  37    -0.222518453303E+03    0.10170E-01   -0.97897E-04 11128   0.256E-01    0.384E-01
DAV:  38    -0.222483907636E+03    0.34546E-01   -0.34240E-03 11772   0.102E+00    0.312E-01
DAV:  39    -0.222463790596E+03    0.20117E-01   -0.12651E-02 11496   0.135E+00    0.249E-01
DAV:  40    -0.222462935012E+03    0.85558E-03   -0.84857E-03  9032   0.368E-01    0.174E-01
DAV:  41    -0.222462236779E+03    0.69823E-03   -0.10921E-03 10024   0.231E-01    0.179E-01
DAV:  42    -0.222463412706E+03   -0.11759E-02   -0.10605E-03  8776   0.366E-01    0.259E-01
DAV:  43    -0.222461425635E+03    0.19871E-02   -0.33191E-03 10136   0.817E-01    0.994E-02
DAV:  44    -0.222461635919E+03   -0.21028E-03   -0.11603E-03  9128   0.204E-01    0.156E-01
DAV:  45    -0.222461595026E+03    0.40893E-04   -0.29458E-04  9000   0.822E-02    0.140E-01
DAV:  46    -0.222461623052E+03   -0.28026E-04   -0.16457E-04  8364   0.159E-01    0.159E-01
DAV:  47    -0.222461516825E+03    0.10623E-03   -0.10167E-04  8976   0.789E-02    0.101E-01
DAV:  48    -0.222461503600E+03    0.13225E-04   -0.23009E-04  7952   0.201E-01    0.318E-02
DAV:  49    -0.222461539468E+03   -0.35867E-04   -0.14356E-04  9656   0.914E-02    0.241E-02
DAV:  50    -0.222461549361E+03   -0.98934E-05   -0.48769E-05  6848   0.274E-02
   1 F= -.22246155E+03 E0= -.22245295E+03  d E =-.172080E-01
