 running    1 mpi-ranks, with    2 threads/rank, on    1 nodes
 distrk:  each k-point on    1 cores,    1 groups
 distr:  one band on    1 cores,    1 groups
 OpenACC runtime initialized ...    1 GPUs detected
 vasp.6.4.2 20Jul23 (build Jun 18 2025 17:29:07) complex                         
 POSCAR found type information on POSCAR GaO SiC H 
 POSCAR found :  5 types and      84 ions
 scaLAPACK will be used selectively (only on CPU)
 -----------------------------------------------------------------------------
|                                                                             |
|               ----> ADVICE to this user running VASP <----                  |
|                                                                             |
|     You have a (more or less) 'large supercell' and for larger cells it     |
|     might be more efficient to use real-space projection operators.         |
|     Therefore, try LREAL= Auto in the INCAR file.                           |
|     Mind: For very accurate calculation, you might also keep the            |
|     reciprocal projection scheme (i.e. LREAL=.FALSE.).                      |
|                                                                             |
 -----------------------------------------------------------------------------

 LDA part: xc-table for Pade appr. of Perdew
 POSCAR, INCAR and KPOINTS ok, starting setup
 FFT: planning ... GRIDC
 FFT: planning ... GRID_SOFT
 FFT: planning ... GRID
 WAVECAR not read
 augmentation electrons    515.9798197223029     
 soft         electrons    0.000000000000000     
 total        electrons    515.9798197223029     
 augmentation electrons    566.3444351518799     
 soft         electrons    0.000000000000000     
 total        electrons    566.3444351518799     
 entering main loop
       N       E                     dE             d eps       ncg     rms          rms(c)
DAV:   1     0.836028503577E+04    0.83603E+04   -0.19235E+05 10666   0.204E+03
DAV:   2     0.180881382001E+04   -0.65515E+04   -0.62488E+04 11114   0.605E+02
DAV:   3    -0.315952884472E+03   -0.21248E+04   -0.19983E+04 14212   0.266E+02
DAV:   4    -0.611474918197E+03   -0.29552E+03   -0.29174E+03 14812   0.101E+02
DAV:   5    -0.624518359195E+03   -0.13043E+02   -0.12900E+02 15228   0.232E+01    0.514E+01
DAV:   6    -0.566474470623E+03    0.58044E+02   -0.84239E+01 18564   0.470E+01    0.306E+01
DAV:   7    -0.548844757003E+03    0.17630E+02   -0.11571E+02 17852   0.394E+01    0.157E+01
DAV:   8    -0.590442254580E+03   -0.41597E+02   -0.44474E+01 16844   0.637E+01    0.221E+01
DAV:   9    -0.642792354131E+03   -0.52350E+02   -0.11491E+03 17420   0.634E+01    0.572E+01
DAV:  10    -0.559019714782E+03    0.83773E+02   -0.33041E+02 17068   0.418E+01    0.126E+01
DAV:  11    -0.554742585086E+03    0.42771E+01   -0.44985E+01 16028   0.188E+01    0.103E+01
DAV:  12    -0.551313686872E+03    0.34289E+01   -0.15580E+01 15092   0.182E+01    0.614E+00
DAV:  13    -0.550917954147E+03    0.39573E+00   -0.44660E+00 13308   0.941E+00    0.441E+00
DAV:  14    -0.550891400143E+03    0.26554E-01   -0.10116E+00 14708   0.487E+00    0.388E+00
DAV:  15    -0.550799487113E+03    0.91913E-01   -0.35425E-01 14652   0.337E+00    0.372E+00
DAV:  16    -0.550457154352E+03    0.34233E+00   -0.56442E-01 18084   0.780E+00    0.247E+00
DAV:  17    -0.550437686483E+03    0.19468E-01   -0.13044E+00 14524   0.421E+00    0.209E+00
DAV:  18    -0.550482212748E+03   -0.44526E-01   -0.30929E-01 14468   0.135E+00    0.214E+00
DAV:  19    -0.550498382953E+03   -0.16170E-01   -0.14546E-02 14540   0.344E-01    0.218E+00
DAV:  20    -0.550573364960E+03   -0.74982E-01   -0.16193E-02 15516   0.775E-01    0.230E+00
DAV:  21    -0.550634022105E+03   -0.60657E-01   -0.33827E-02 17572   0.117E+00    0.253E+00
DAV:  22    -0.550405190128E+03    0.22883E+00   -0.17510E-01 15500   0.141E+00    0.227E+00
DAV:  23    -0.550416482606E+03   -0.11292E-01   -0.29424E-02 13532   0.392E-01    0.224E+00
DAV:  24    -0.550424159712E+03   -0.76771E-02   -0.31246E-03 16116   0.140E-01    0.227E+00
DAV:  25    -0.550426675581E+03   -0.25159E-02   -0.69505E-02 16708   0.859E-01    0.213E+00
DAV:  26    -0.550457665494E+03   -0.30990E-01   -0.71632E-01 15524   0.257E+00    0.290E+00
DAV:  27    -0.550667678302E+03   -0.21001E+00   -0.34269E-01 14292   0.231E+00    0.330E+00
DAV:  28    -0.550586366491E+03    0.81312E-01   -0.62491E-02 13260   0.871E-01    0.329E+00
DAV:  29    -0.550545255799E+03    0.41111E-01   -0.10388E-02 14332   0.302E-01    0.316E+00
DAV:  30    -0.550555509198E+03   -0.10253E-01   -0.24144E-03 13092   0.156E-01    0.316E+00
DAV:  31    -0.550544107804E+03    0.11401E-01   -0.14910E-04 13628   0.106E-01    0.314E+00
DAV:  32    -0.550246252365E+03    0.29786E+00   -0.14202E-01 15172   0.151E+00    0.231E+00
DAV:  33    -0.550054004896E+03    0.19225E+00   -0.21943E-01 16220   0.176E+00    0.165E+00
DAV:  34    -0.550155527096E+03   -0.10152E+00   -0.92313E-02 12660   0.110E+00    0.170E+00
DAV:  35    -0.550158169055E+03   -0.26420E-02   -0.18217E-02 15044   0.378E-01    0.168E+00
DAV:  36    -0.550079801466E+03    0.78368E-01   -0.26391E-02 16588   0.736E-01    0.134E+00
DAV:  37    -0.549992096386E+03    0.87705E-01   -0.43249E-02 18588   0.134E+00    0.104E+00
DAV:  38    -0.549980459741E+03    0.11637E-01   -0.37513E-02 13108   0.485E-01    0.982E-01
DAV:  39    -0.549970407287E+03    0.10052E-01   -0.36906E-03 15932   0.215E-01    0.943E-01
DAV:  40    -0.549953708380E+03    0.16699E-01   -0.10038E-03 16244   0.251E-01    0.917E-01
DAV:  41    -0.549906201292E+03    0.47507E-01   -0.11226E-02 16548   0.985E-01    0.819E-01
DAV:  42    -0.549825821333E+03    0.80380E-01   -0.23921E-02 15964   0.225E+00    0.711E-01
DAV:  43    -0.549806612864E+03    0.19208E-01   -0.36727E-02 15252   0.945E-01    0.695E-01
DAV:  44    -0.549815357450E+03   -0.87446E-02   -0.14508E-02 12444   0.372E-01    0.762E-01
DAV:  45    -0.549804228376E+03    0.11129E-01   -0.13101E-03 12396   0.382E-01    0.736E-01
DAV:  46    -0.549767553669E+03    0.36675E-01   -0.88212E-03 16892   0.114E+00    0.611E-01
DAV:  47    -0.549749099141E+03    0.18455E-01   -0.87488E-03 17364   0.984E-01    0.489E-01
DAV:  48    -0.549748153343E+03    0.94580E-03   -0.11884E-02 15812   0.460E-01    0.525E-01
DAV:  49    -0.549747895052E+03    0.25829E-03   -0.32327E-03 13260   0.144E-01    0.550E-01
DAV:  50    -0.549746831789E+03    0.10633E-02   -0.15114E-04 15092   0.585E-02    0.549E-01
DAV:  51    -0.549740365336E+03    0.64665E-02   -0.44328E-04 15532   0.296E-01    0.522E-01
DAV:  52    -0.549716619551E+03    0.23746E-01   -0.78548E-03 15844   0.129E+00    0.421E-01
DAV:  53    -0.549705805093E+03    0.10814E-01   -0.10759E-02 17068   0.617E-01    0.423E-01
DAV:  54    -0.549703972260E+03    0.18328E-02   -0.61364E-03 13068   0.230E-01    0.434E-01
DAV:  55    -0.549704199145E+03   -0.22688E-03   -0.10972E-03 13956   0.852E-02    0.446E-01
DAV:  56    -0.549706196323E+03   -0.19972E-02   -0.18774E-04 12644   0.127E-01    0.443E-01
DAV:  57    -0.549712535231E+03   -0.63389E-02   -0.10464E-03 16852   0.399E-01    0.472E-01
DAV:  58    -0.549705996490E+03    0.65387E-02   -0.54565E-04 14460   0.401E-01    0.440E-01
DAV:  59    -0.549689375342E+03    0.16621E-01   -0.44930E-03 16292   0.122E+00    0.458E-01
DAV:  60    -0.549691386397E+03   -0.20111E-02   -0.93366E-03 13252   0.267E-01    0.597E-01
DAV:  61    -0.549690408077E+03    0.97832E-03   -0.13700E-03 14948   0.266E-01    0.594E-01
DAV:  62    -0.549683788746E+03    0.66193E-02   -0.21853E-03 14652   0.651E-01    0.483E-01
DAV:  63    -0.549680303700E+03    0.34850E-02   -0.19046E-02 14340   0.663E-01    0.458E-01
DAV:  64    -0.549679961539E+03    0.34216E-03   -0.77277E-03 12956   0.219E-01    0.525E-01
DAV:  65    -0.549679805731E+03    0.15581E-03   -0.28127E-03 16732   0.183E-01    0.577E-01
DAV:  66    -0.549671015096E+03    0.87906E-02   -0.78038E-04 16724   0.633E-01    0.538E-01
DAV:  67    -0.549664606213E+03    0.64089E-02   -0.34590E-03 16756   0.596E-01    0.504E-01
DAV:  68    -0.549665141935E+03   -0.53572E-03   -0.38162E-03 12404   0.151E-01    0.515E-01
DAV:  69    -0.549663328100E+03    0.18138E-02   -0.41478E-04 13588   0.148E-01    0.484E-01
DAV:  70    -0.549661476721E+03    0.18514E-02   -0.65166E-05 11940   0.139E-01    0.477E-01
DAV:  71    -0.549651697434E+03    0.97793E-02   -0.54413E-04 16364   0.769E-01    0.446E-01
DAV:  72    -0.549641078482E+03    0.10619E-01   -0.14571E-03 16388   0.913E-01    0.393E-01
DAV:  73    -0.549636552347E+03    0.45261E-02   -0.41944E-03 16788   0.442E-01    0.302E-01
DAV:  74    -0.549636272599E+03    0.27975E-03   -0.27056E-03 12636   0.120E-01    0.309E-01
DAV:  75    -0.549635988108E+03    0.28449E-03   -0.23714E-04 15092   0.513E-02    0.310E-01
DAV:  76    -0.549635991430E+03   -0.33217E-05   -0.55880E-05 10428   0.208E-02
   1 F= -.54963599E+03 E0= -.54963746E+03  d E =0.441566E-02
 writing wavefunctions
 augmentation electrons    149.5756833707855     
 soft         electrons    366.4123254159782     
 total        electrons    515.9880087867637     
