10240
Time=0.00000000 pbc="T T T" Lattice="49.21110640 -0.00000000 0.00000000 -24.60555320 42.61806829 0.00000000 0.00000000 0.00000000 50.35323240" energy=-80191.08685684 virial="-570.64942306 0.00220310 -0.00013242 0.00220310 -570.64946663 -0.00017920 -0.00013242 -0.00017920 -664.26127303" stress="-0.00287455 0.00000441 0.00003501 0.00000441 -0.00288393 -0.00001151 0.00003501 -0.00001151 -0.00381859" Properties=species:S:1:pos:R:3
Si 14.83411133 23.51066374 39.65661447
Si 13.29626426 24.39854016 34.62129123
Si 13.29626426 22.62278731 37.13948056
Si 13.29626426 22.62278731 32.10415732
C 14.83411133 23.51066374 37.76293625
C 13.29626426 24.39854016 32.72761301
C 13.29626426 22.62278731 35.25189568
C 13.29626426 22.62278731 30.21657244
Si 14.83411133 23.51066374 49.72726095
Si 13.29626426 24.39854016 44.69193771
Si 13.29626426 22.62278731 47.21012704
Si 13.29626426 22.62278731 42.17480380
C 14.83411133 23.51066374 47.83358273
C 13.29626426 24.39854016 42.79825949
C 13.29626426 22.62278731 45.32254216
C 13.29626426 22.62278731 40.28721892
Si 14.83411133 23.51066374 9.44467503
Si 13.29626426 24.39854016 4.40935179
Si 13.29626426 22.62278731 6.92754112
Si 13.29626426 22.62278731 1.89221788
C 14.83411133 23.51066374 7.55099681
C 13.29626426 24.39854016 2.51567357
C 13.29626426 22.62278731 5.03995624
C 13.29626426 22.62278731 0.00463300
Si 14.83411133 23.51066374 19.51532151
Si 13.29626426 24.39854016 14.47999827
Si 13.29626426 22.62278731 16.99818760
Si 13.29626426 22.62278731 11.96286436
C 14.83411133 23.51066374 17.62164329
C 13.29626426 24.39854016 12.58632005
C 13.29626426 22.62278731 15.11060272
C 13.29626426 22.62278731 10.07527948
Si 14.83411133 23.51066374 29.58596799
Si 13.29626426 24.39854016 24.55064475
Si 13.29626426 22.62278731 27.06883408
Si 13.29626426 22.62278731 22.03351084
C 14.83411133 23.51066374 27.69228977
C 13.29626426 24.39854016 22.65696653
C 13.29626426 22.62278731 25.18124920
C 13.29626426 22.62278731 20.14592596
Si 13.29626426 26.17429300 39.65661447
Si 11.75841718 27.06216943 34.62129123
Si 11.75841718 25.28641658 37.13948056
Si 11.75841718 25.28641658 32.10415732
C 13.29626426 26.17429300 37.76293625
C 11.75841718 27.06216943 32.72761301
C 11.75841718 25.28641658 35.25189568
C 11.75841718 25.28641658 30.21657244
Si 13.29626426 26.17429300 49.72726095
Si 11.75841718 27.06216943 44.69193771
Si 11.75841718 25.28641658 47.21012704
Si 11.75841718 25.28641658 42.17480380
C 13.29626426 26.17429300 47.83358273
C 11.75841718 27.06216943 42.79825949
C 11.75841718 25.28641658 45.32254216
C 11.75841718 25.28641658 40.28721892
Si 13.29626426 26.17429300 9.44467503
Si 11.75841718 27.06216943 4.40935179
Si 11.75841718 25.28641658 6.92754112
Si 11.75841718 25.28641658 1.89221788
C 13.29626426 26.17429300 7.55099681
C 11.75841718 27.06216943 2.51567357
C 11.75841718 25.28641658 5.03995624
C 11.75841718 25.28641658 0.00463300
Si 13.29626426 26.17429300 19.51532151
Si 11.75841718 27.06216943 14.47999827
Si 11.75841718 25.28641658 16.99818760
Si 11.75841718 25.28641658 11.96286436
C 13.29626426 26.17429300 17.62164329
C 11.75841718 27.06216943 12.58632005
C 11.75841718 25.28641658 15.11060272
C 11.75841718 25.28641658 10.07527948
Si 13.29626426 26.17429300 29.58596799
Si 11.75841718 27.06216943 24.55064475
Si 11.75841718 25.28641658 27.06883408
Si 11.75841718 25.28641658 22.03351084
C 13.29626426 26.17429300 27.69228977
C 11.75841718 27.06216943 22.65696653
C 11.75841718 25.28641658 25.18124920
C 11.75841718 25.28641658 20.14592596
Si 11.75841718 28.83792227 39.65661447
Si 10.22057011 29.72579869 34.62129123
Si 10.22057011 27.95004585 37.13948056
Si 10.22057011 27.95004585 32.10415732
C 11.75841718 28.83792227 37.76293625
C 10.22057011 29.72579869 32.72761301
C 10.22057011 27.95004585 35.25189568
C 10.22057011 27.95004585 30.21657244
Si 11.75841718 28.83792227 49.72726095
Si 10.22057011 29.72579869 44.69193771
Si 10.22057011 27.95004585 47.21012704
Si 10.22057011 27.95004585 42.17480380
C 11.75841718 28.83792227 47.83358273
C 10.22057011 29.72579869 42.79825949
C 10.22057011 27.95004585 45.32254216
C 10.22057011 27.95004585 40.28721892
Si 11.75841718 28.83792227 9.44467503
Si 10.22057011 29.72579869 4.40935179
Si 10.22057011 27.95004585 6.92754112
Si 10.22057011 27.95004585 1.89221788
C 11.75841718 28.83792227 7.55099681
C 10.22057011 29.72579869 2.51567357
C 10.22057011 27.95004585 5.03995624
C 10.22057011 27.95004585 0.00463300
Si 11.75841718 28.83792227 19.51532151
Si 10.22057011 29.72579869 14.47999827
Si 10.22057011 27.95004585 16.99818760
Si 10.22057011 27.95004585 11.96286436
C 11.75841718 28.83792227 17.62164329
C 10.22057011 29.72579869 12.58632005
C 10.22057011 27.95004585 15.11060272
C 10.22057011 27.95004585 10.07527948
Si 11.75841718 28.83792227 29.58596799
Si 10.22057011 29.72579869 24.55064475
Si 10.22057011 27.95004585 27.06883408
Si 10.22057011 27.95004585 22.03351084
C 11.75841718 28.83792227 27.69228977
C 10.22057011 29.72579869 22.65696653
C 10.22057011 27.95004585 25.18124920
C 10.22057011 27.95004585 20.14592596
Si 10.22057011 31.50155154 39.65661447
Si 8.68272303 32.38942796 34.62129123
Si 8.68272303 30.61367512 37.13948056
Si 8.68272303 30.61367512 32.10415732
C 10.22057011 31.50155154 37.76293625
C 8.68272303 32.38942796 32.72761301
C 8.68272303 30.61367512 35.25189568
C 8.68272303 30.61367512 30.21657244
Si 10.22057011 31.50155154 49.72726095
Si 8.68272303 32.38942796 44.69193771
Si 8.68272303 30.61367512 47.21012704
Si 8.68272303 30.61367512 42.17480380
C 10.22057011 31.50155154 47.83358273
C 8.68272303 32.38942796 42.79825949
C 8.68272303 30.61367512 45.32254216
C 8.68272303 30.61367512 40.28721892
Si 10.22057011 31.50155154 9.44467503
Si 8.68272303 32.38942796 4.40935179
Si 8.68272303 30.61367512 6.92754112
Si 8.68272303 30.61367512 1.89221788
C 10.22057011 31.50155154 7.55099681
C 8.68272303 32.38942796 2.51567357
C 8.68272303 30.61367512 5.03995624
C 8.68272303 30.61367512 0.00463300
Si 10.22057011 31.50155154 19.51532151
Si 8.68272303 32.38942796 14.47999827
Si 8.68272303 30.61367512 16.99818760
Si 8.68272303 30.61367512 11.96286436
C 10.22057011 31.50155154 17.62164329
C 8.68272303 32.38942796 12.58632005
C 8.68272303 30.61367512 15.11060272
C 8.68272303 30.61367512 10.07527948
Si 10.22057011 31.50155154 29.58596799
Si 8.68272303 32.38942796 24.55064475
Si 8.68272303 30.61367512 27.06883408
Si 8.68272303 30.61367512 22.03351084
C 10.22057011 31.50155154 27.69228977
C 8.68272303 32.38942796 22.65696653
C 8.68272303 30.61367512 25.18124920
C 8.68272303 30.61367512 20.14592596
Si 8.68272303 34.16518081 39.65661447
Si 7.14487596 35.05305723 34.62129123
Si 7.14487596 33.27730439 37.13948056
Si 7.14487596 33.27730439 32.10415732
C 8.68272303 34.16518081 37.76293625
C 7.14487596 35.05305723 32.72761301
C 7.14487596 33.27730439 35.25189568
C 7.14487596 33.27730439 30.21657244
Si 8.68272303 34.16518081 49.72726095
Si 7.14487596 35.05305723 44.69193771
Si 7.14487596 33.27730439 47.21012704
Si 7.14487596 33.27730439 42.17480380
C 8.68272303 34.16518081 47.83358273
C 7.14487596 35.05305723 42.79825949
C 7.14487596 33.27730439 45.32254216
C 7.14487596 33.27730439 40.28721892
Si 8.68272303 34.16518081 9.44467503
Si 7.14487596 35.05305723 4.40935179
Si 7.14487596 33.27730439 6.92754112
Si 7.14487596 33.27730439 1.89221788
C 8.68272303 34.16518081 7.55099681
C 7.14487596 35.05305723 2.51567357
C 7.14487596 33.27730439 5.03995624
C 7.14487596 33.27730439 0.00463300
Si 8.68272303 34.16518081 19.51532151
Si 7.14487596 35.05305723 14.47999827
Si 7.14487596 33.27730439 16.99818760
Si 7.14487596 33.27730439 11.96286436
C 8.68272303 34.16518081 17.62164329
C 7.14487596 35.05305723 12.58632005
C 7.14487596 33.27730439 15.11060272
C 7.14487596 33.27730439 10.07527948
Si 8.68272303 34.16518081 29.58596799
Si 7.14487596 35.05305723 24.55064475
Si 7.14487596 33.27730439 27.06883408
Si 7.14487596 33.27730439 22.03351084
C 8.68272303 34.16518081 27.69228977
C 7.14487596 35.05305723 22.65696653
C 7.14487596 33.27730439 25.18124920
C 7.14487596 33.27730439 20.14592596
Si 7.14487596 36.82881008 39.65661447
Si 5.60702888 37.71668650 34.62129123
Si 5.60702888 35.94093365 37.13948056
Si 5.60702888 35.94093365 32.10415732
C 7.14487596 36.82881008 37.76293625
C 5.60702888 37.71668650 32.72761301
C 5.60702888 35.94093365 35.25189568
C 5.60702888 35.94093365 30.21657244
Si 7.14487596 36.82881008 49.72726095
Si 5.60702888 37.71668650 44.69193771
Si 5.60702888 35.94093365 47.21012704
Si 5.60702888 35.94093365 42.17480380
C 7.14487596 36.82881008 47.83358273
C 5.60702888 37.71668650 42.79825949
C 5.60702888 35.94093365 45.32254216
C 5.60702888 35.94093365 40.28721892
Si 7.14487596 36.82881008 9.44467503
Si 5.60702888 37.71668650 4.40935179
Si 5.60702888 35.94093365 6.92754112
Si 5.60702888 35.94093365 1.89221788
C 7.14487596 36.82881008 7.55099681
C 5.60702888 37.71668650 2.51567357
C 5.60702888 35.94093365 5.03995624
C 5.60702888 35.94093365 0.00463300
Si 7.14487596 36.82881008 19.51532151
Si 5.60702888 37.71668650 14.47999827
Si 5.60702888 35.94093365 16.99818760
Si 5.60702888 35.94093365 11.96286436
C 7.14487596 36.82881008 17.62164329
C 5.60702888 37.71668650 12.58632005
C 5.60702888 35.94093365 15.11060272
C 5.60702888 35.94093365 10.07527948
Si 7.14487596 36.82881008 29.58596799
Si 5.60702888 37.71668650 24.55064475
Si 5.60702888 35.94093365 27.06883408
Si 5.60702888 35.94093365 22.03351084
C 7.14487596 36.82881008 27.69228977
C 5.60702888 37.71668650 22.65696653
C 5.60702888 35.94093365 25.18124920
C 5.60702888 35.94093365 20.14592596
Si 5.60702888 39.49243934 39.65661447
Si 4.06918181 40.38031577 34.62129123
Si 4.06918181 38.60456292 37.13948056
Si 4.06918181 38.60456292 32.10415732
C 5.60702888 39.49243934 37.76293625
C 4.06918181 40.38031577 32.72761301
C 4.06918181 38.60456292 35.25189568
C 4.06918181 38.60456292 30.21657244
Si 5.60702888 39.49243934 49.72726095
Si 4.06918181 40.38031577 44.69193771
Si 4.06918181 38.60456292 47.21012704
Si 4.06918181 38.60456292 42.17480380
C 5.60702888 39.49243934 47.83358273
C 4.06918181 40.38031577 42.79825949
C 4.06918181 38.60456292 45.32254216
C 4.06918181 38.60456292 40.28721892
Si 5.60702888 39.49243934 9.44467503
Si 4.06918181 40.38031577 4.40935179
Si 4.06918181 38.60456292 6.92754112
Si 4.06918181 38.60456292 1.89221788
C 5.60702888 39.49243934 7.55099681
C 4.06918181 40.38031577 2.51567357
C 4.06918181 38.60456292 5.03995624
C 4.06918181 38.60456292 0.00463300
Si 5.60702888 39.49243934 19.51532151
Si 4.06918181 40.38031577 14.47999827
Si 4.06918181 38.60456292 16.99818760
Si 4.06918181 38.60456292 11.96286436
C 5.60702888 39.49243934 17.62164329
C 4.06918181 40.38031577 12.58632005
C 4.06918181 38.60456292 15.11060272
C 4.06918181 38.60456292 10.07527948
Si 5.60702888 39.49243934 29.58596799
Si 4.06918181 40.38031577 24.55064475
Si 4.06918181 38.60456292 27.06883408
Si 4.06918181 38.60456292 22.03351084
C 5.60702888 39.49243934 27.69228977
C 4.06918181 40.38031577 22.65696653
C 4.06918181 38.60456292 25.18124920
C 4.06918181 38.60456292 20.14592596
Si 4.06918181 42.15606861 39.65661447
Si 27.13688793 0.42587675 34.62129123
Si 2.53133473 41.26819219 37.13948056
Si 2.53133473 41.26819219 32.10415732
C 4.06918181 42.15606861 37.76293625
C 27.13688793 0.42587675 32.72761301
C 2.53133473 41.26819219 35.25189568
C 2.53133473 41.26819219 30.21657244
Si 4.06918181 42.15606861 49.72726095
Si 27.13688793 0.42587675 44.69193771
Si 2.53133473 41.26819219 47.21012704
Si 2.53133473 41.26819219 42.17480380
C 4.06918181 42.15606861 47.83358273
C 27.13688793 0.42587675 42.79825949
C 2.53133473 41.26819219 45.32254216
C 2.53133473 41.26819219 40.28721892
Si 4.06918181 42.15606861 9.44467503
Si 27.13688793 0.42587675 4.40935179
Si 2.53133473 41.26819219 6.92754112
Si 2.53133473 41.26819219 1.89221788
C 4.06918181 42.15606861 7.55099681
C 27.13688793 0.42587675 2.51567357
C 2.53133473 41.26819219 5.03995624
C 2.53133473 41.26819219 0.00463300
Si 4.06918181 42.15606861 19.51532151
Si 27.13688793 0.42587675 14.47999827
Si 2.53133473 41.26819219 16.99818760
Si 2.53133473 41.26819219 11.96286436
C 4.06918181 42.15606861 17.62164329
C 27.13688793 0.42587675 12.58632005
C 2.53133473 41.26819219 15.11060272
C 2.53133473 41.26819219 10.07527948
Si 4.06918181 42.15606861 29.58596799
Si 27.13688793 0.42587675 24.55064475
Si 2.53133473 41.26819219 27.06883408
Si 2.53133473 41.26819219 22.03351084
C 4.06918181 42.15606861 27.69228977
C 27.13688793 0.42587675 22.65696653
C 2.53133473 41.26819219 25.18124920
C 2.53133473 41.26819219 20.14592596
Si 27.13688793 2.20162959 39.65661447
Si 25.59904086 3.08950602 34.62129123
Si 25.59904086 1.31375317 37.13948056
Si 25.59904086 1.31375317 32.10415732
C 27.13688793 2.20162959 37.76293625
C 25.59904086 3.08950602 32.72761301
C 25.59904086 1.31375317 35.25189568
C 25.59904086 1.31375317 30.21657244
Si 27.13688793 2.20162959 49.72726095
Si 25.59904086 3.08950602 44.69193771
Si 25.59904086 1.31375317 47.21012704
Si 25.59904086 1.31375317 42.17480380
C 27.13688793 2.20162959 47.83358273
C 25.59904086 3.08950602 42.79825949
C 25.59904086 1.31375317 45.32254216
C 25.59904086 1.31375317 40.28721892
Si 27.13688793 2.20162959 9.44467503
Si 25.59904086 3.08950602 4.40935179
Si 25.59904086 1.31375317 6.92754112
Si 25.59904086 1.31375317 1.89221788
C 27.13688793 2.20162959 7.55099681
C 25.59904086 3.08950602 2.51567357
C 25.59904086 1.31375317 5.03995624
C 25.59904086 1.31375317 0.00463300
Si 27.13688793 2.20162959 19.51532151
Si 25.59904086 3.08950602 14.47999827
Si 25.59904086 1.31375317 16.99818760
Si 25.59904086 1.31375317 11.96286436
C 27.13688793 2.20162959 17.62164329
C 25.59904086 3.08950602 12.58632005
C 25.59904086 1.31375317 15.11060272
C 25.59904086 1.31375317 10.07527948
Si 27.13688793 2.20162959 29.58596799
Si 25.59904086 3.08950602 24.55064475
Si 25.59904086 1.31375317 27.06883408
Si 25.59904086 1.31375317 22.03351084
C 27.13688793 2.20162959 27.69228977
C 25.59904086 3.08950602 22.65696653
C 25.59904086 1.31375317 25.18124920
C 25.59904086 1.31375317 20.14592596
Si 25.59904086 4.86525886 39.65661447
Si 24.06119378 5.75313528 34.62129123
Si 24.06119378 3.97738244 37.13948056
Si 24.06119378 3.97738244 32.10415732
C 25.59904086 4.86525886 37.76293625
C 24.06119378 5.75313528 32.72761301
C 24.06119378 3.97738244 35.25189568
C 24.06119378 3.97738244 30.21657244
Si 25.59904086 4.86525886 49.72726095
Si 24.06119378 5.75313528 44.69193771
Si 24.06119378 3.97738244 47.21012704
Si 24.06119378 3.97738244 42.17480380
C 25.59904086 4.86525886 47.83358273
C 24.06119378 5.75313528 42.79825949
C 24.06119378 3.97738244 45.32254216
C 24.06119378 3.97738244 40.28721892
Si 25.59904086 4.86525886 9.44467503
Si 24.06119378 5.75313528 4.40935179
Si 24.06119378 3.97738244 6.92754112
Si 24.06119378 3.97738244 1.89221788
C 25.59904086 4.86525886 7.55099681
C 24.06119378 5.75313528 2.51567357
C 24.06119378 3.97738244 5.03995624
C 24.06119378 3.97738244 0.00463300
Si 25.59904086 4.86525886 19.51532151
Si 24.06119378 5.75313528 14.47999827
Si 24.06119378 3.97738244 16.99818760
Si 24.06119378 3.97738244 11.96286436
C 25.59904086 4.86525886 17.62164329
C 24.06119378 5.75313528 12.58632005
C 24.06119378 3.97738244 15.11060272
C 24.06119378 3.97738244 10.07527948
Si 25.59904086 4.86525886 29.58596799
Si 24.06119378 5.75313528 24.55064475
Si 24.06119378 3.97738244 27.06883408
Si 24.06119378 3.97738244 22.03351084
C 25.59904086 4.86525886 27.69228977
C 24.06119378 5.75313528 22.65696653
C 24.06119378 3.97738244 25.18124920
C 24.06119378 3.97738244 20.14592596
Si 24.06119378 7.52888813 39.65661447
Si 22.52334671 8.41676455 34.62129123
Si 22.52334671 6.64101171 37.13948056
Si 22.52334671 6.64101171 32.10415732
C 24.06119378 7.52888813 37.76293625
C 22.52334671 8.41676455 32.72761301
C 22.52334671 6.64101171 35.25189568
C 22.52334671 6.64101171 30.21657244
Si 24.06119378 7.52888813 49.72726095
Si 22.52334671 8.41676455 44.69193771
Si 22.52334671 6.64101171 47.21012704
Si 22.52334671 6.64101171 42.17480380
C 24.06119378 7.52888813 47.83358273
C 22.52334671 8.41676455 42.79825949
C 22.52334671 6.64101171 45.32254216
C 22.52334671 6.64101171 40.28721892
Si 24.06119378 7.52888813 9.44467503
Si 22.52334671 8.41676455 4.40935179
Si 22.52334671 6.64101171 6.92754112
Si 22.52334671 6.64101171 1.89221788
C 24.06119378 7.52888813 7.55099681
C 22.52334671 8.41676455 2.51567357
C 22.52334671 6.64101171 5.03995624
C 22.52334671 6.64101171 0.00463300
Si 24.06119378 7.52888813 19.51532151
Si 22.52334671 8.41676455 14.47999827
Si 22.52334671 6.64101171 16.99818760
Si 22.52334671 6.64101171 11.96286436
C 24.06119378 7.52888813 17.62164329
C 22.52334671 8.41676455 12.58632005
C 22.52334671 6.64101171 15.11060272
C 22.52334671 6.64101171 10.07527948
Si 24.06119378 7.52888813 29.58596799
Si 22.52334671 8.41676455 24.55064475
Si 22.52334671 6.64101171 27.06883408
Si 22.52334671 6.64101171 22.03351084
C 24.06119378 7.52888813 27.69228977
C 22.52334671 8.41676455 22.65696653
C 22.52334671 6.64101171 25.18124920
C 22.52334671 6.64101171 20.14592596
Si 22.52334671 10.19251740 39.65661447
Si 20.98549963 11.08039382 34.62129123
Si 20.98549963 9.30464097 37.13948056
Si 20.98549963 9.30464097 32.10415732
C 22.52334671 10.19251740 37.76293625
C 20.98549963 11.08039382 32.72761301
C 20.98549963 9.30464097 35.25189568
C 20.98549963 9.30464097 30.21657244
Si 22.52334671 10.19251740 49.72726095
Si 20.98549963 11.08039382 44.69193771
Si 20.98549963 9.30464097 47.21012704
Si 20.98549963 9.30464097 42.17480380
C 22.52334671 10.19251740 47.83358273
C 20.98549963 11.08039382 42.79825949
C 20.98549963 9.30464097 45.32254216
C 20.98549963 9.30464097 40.28721892
Si 22.52334671 10.19251740 9.44467503
Si 20.98549963 11.08039382 4.40935179
Si 20.98549963 9.30464097 6.92754112
Si 20.98549963 9.30464097 1.89221788
C 22.52334671 10.19251740 7.55099681
C 20.98549963 11.08039382 2.51567357
C 20.98549963 9.30464097 5.03995624
C 20.98549963 9.30464097 0.00463300
Si 22.52334671 10.19251740 19.51532151
Si 20.98549963 11.08039382 14.47999827
Si 20.98549963 9.30464097 16.99818760
Si 20.98549963 9.30464097 11.96286436
C 22.52334671 10.19251740 17.62164329
C 20.98549963 11.08039382 12.58632005
C 20.98549963 9.30464097 15.11060272
C 20.98549963 9.30464097 10.07527948
Si 22.52334671 10.19251740 29.58596799
Si 20.98549963 11.08039382 24.55064475
Si 20.98549963 9.30464097 27.06883408
Si 20.98549963 9.30464097 22.03351084
C 22.52334671 10.19251740 27.69228977
C 20.98549963 11.08039382 22.65696653
C 20.98549963 9.30464097 25.18124920
C 20.98549963 9.30464097 20.14592596
Si 20.98549963 12.85614666 39.65661447
Si 19.44765256 13.74402309 34.62129123
Si 19.44765256 11.96827024 37.13948056
Si 19.44765256 11.96827024 32.10415732
C 20.98549963 12.85614666 37.76293625
C 19.44765256 13.74402309 32.72761301
C 19.44765256 11.96827024 35.25189568
C 19.44765256 11.96827024 30.21657244
Si 20.98549963 12.85614666 49.72726095
Si 19.44765256 13.74402309 44.69193771
Si 19.44765256 11.96827024 47.21012704
Si 19.44765256 11.96827024 42.17480380
C 20.98549963 12.85614666 47.83358273
C 19.44765256 13.74402309 42.79825949
C 19.44765256 11.96827024 45.32254216
C 19.44765256 11.96827024 40.28721892
Si 20.98549963 12.85614666 9.44467503
Si 19.44765256 13.74402309 4.40935179
Si 19.44765256 11.96827024 6.92754112
Si 19.44765256 11.96827024 1.89221788
C 20.98549963 12.85614666 7.55099681
C 19.44765256 13.74402309 2.51567357
C 19.44765256 11.96827024 5.03995624
C 19.44765256 11.96827024 0.00463300
Si 20.98549963 12.85614666 19.51532151
Si 19.44765256 13.74402309 14.47999827
Si 19.44765256 11.96827024 16.99818760
Si 19.44765256 11.96827024 11.96286436
C 20.98549963 12.85614666 17.62164329
C 19.44765256 13.74402309 12.58632005
C 19.44765256 11.96827024 15.11060272
C 19.44765256 11.96827024 10.07527948
Si 20.98549963 12.85614666 29.58596799
Si 19.44765256 13.74402309 24.55064475
Si 19.44765256 11.96827024 27.06883408
Si 19.44765256 11.96827024 22.03351084
C 20.98549963 12.85614666 27.69228977
C 19.44765256 13.74402309 22.65696653
C 19.44765256 11.96827024 25.18124920
C 19.44765256 11.96827024 20.14592596
Si 19.44765256 15.51977593 39.65661447
Si 17.90980548 16.40765236 34.62129123
Si 17.90980548 14.63189951 37.13948056
Si 17.90980548 14.63189951 32.10415732
C 19.44765256 15.51977593 37.76293625
C 17.90980548 16.40765236 32.72761301
C 17.90980548 14.63189951 35.25189568
C 17.90980548 14.63189951 30.21657244
Si 19.44765256 15.51977593 49.72726095
Si 17.90980548 16.40765236 44.69193771
Si 17.90980548 14.63189951 47.21012704
Si 17.90980548 14.63189951 42.17480380
C 19.44765256 15.51977593 47.83358273
C 17.90980548 16.40765236 42.79825949
C 17.90980548 14.63189951 45.32254216
C 17.90980548 14.63189951 40.28721892
Si 19.44765256 15.51977593 9.44467503
Si 17.90980548 16.40765236 4.40935179
Si 17.90980548 14.63189951 6.92754112
Si 17.90980548 14.63189951 1.89221788
C 19.44765256 15.51977593 7.55099681
C 17.90980548 16.40765236 2.51567357
C 17.90980548 14.63189951 5.03995624
C 17.90980548 14.63189951 0.00463300
Si 19.44765256 15.51977593 19.51532151
Si 17.90980548 16.40765236 14.47999827
Si 17.90980548 14.63189951 16.99818760
Si 17.90980548 14.63189951 11.96286436
C 19.44765256 15.51977593 17.62164329
C 17.90980548 16.40765236 12.58632005
C 17.90980548 14.63189951 15.11060272
C 17.90980548 14.63189951 10.07527948
Si 19.44765256 15.51977593 29.58596799
Si 17.90980548 16.40765236 24.55064475
Si 17.90980548 14.63189951 27.06883408
Si 17.90980548 14.63189951 22.03351084
C 19.44765256 15.51977593 27.69228977
C 17.90980548 16.40765236 22.65696653
C 17.90980548 14.63189951 25.18124920
C 17.90980548 14.63189951 20.14592596
Si 17.90980548 18.18340520 39.65661447
Si 16.37195841 19.07128162 34.62129123
Si 16.37195841 17.29552878 37.13948056
Si 16.37195841 17.29552878 32.10415732
C 17.90980548 18.18340520 37.76293625
C 16.37195841 19.07128162 32.72761301
C 16.37195841 17.29552878 35.25189568
C 16.37195841 17.29552878 30.21657244
Si 17.90980548 18.18340520 49.72726095
Si 16.37195841 19.07128162 44.69193771
Si 16.37195841 17.29552878 47.21012704
Si 16.37195841 17.29552878 42.17480380
C 17.90980548 18.18340520 47.83358273
C 16.37195841 19.07128162 42.79825949
C 16.37195841 17.29552878 45.32254216
C 16.37195841 17.29552878 40.28721892
Si 17.90980548 18.18340520 9.44467503
Si 16.37195841 19.07128162 4.40935179
Si 16.37195841 17.29552878 6.92754112
Si 16.37195841 17.29552878 1.89221788
C 17.90980548 18.18340520 7.55099681
C 16.37195841 19.07128162 2.51567357
C 16.37195841 17.29552878 5.03995624
C 16.37195841 17.29552878 0.00463300
Si 17.90980548 18.18340520 19.51532151
Si 16.37195841 19.07128162 14.47999827
Si 16.37195841 17.29552878 16.99818760
Si 16.37195841 17.29552878 11.96286436
C 17.90980548 18.18340520 17.62164329
C 16.37195841 19.07128162 12.58632005
C 16.37195841 17.29552878 15.11060272
C 16.37195841 17.29552878 10.07527948
Si 17.90980548 18.18340520 29.58596799
Si 16.37195841 19.07128162 24.55064475
Si 16.37195841 17.29552878 27.06883408
Si 16.37195841 17.29552878 22.03351084
C 17.90980548 18.18340520 27.69228977
C 16.37195841 19.07128162 22.65696653
C 16.37195841 17.29552878 25.18124920
C 16.37195841 17.29552878 20.14592596
Si 16.37195841 20.84703447 39.65661447
Si 14.83411133 21.73491089 34.62129123
Si 14.83411133 19.95915805 37.13948056
Si 14.83411133 19.95915805 32.10415732
C 16.37195841 20.84703447 37.76293625
C 14.83411133 21.73491089 32.72761301
C 14.83411133 19.95915805 35.25189568
C 14.83411133 19.95915805 30.21657244
Si 16.37195841 20.84703447 49.72726095
Si 14.83411133 21.73491089 44.69193771
Si 14.83411133 19.95915805 47.21012704
Si 14.83411133 19.95915805 42.17480380
C 16.37195841 20.84703447 47.83358273
C 14.83411133 21.73491089 42.79825949
C 14.83411133 19.95915805 45.32254216
C 14.83411133 19.95915805 40.28721892
Si 16.37195841 20.84703447 9.44467503
Si 14.83411133 21.73491089 4.40935179
Si 14.83411133 19.95915805 6.92754112
Si 14.83411133 19.95915805 1.89221788
C 16.37195841 20.84703447 7.55099681
C 14.83411133 21.73491089 2.51567357
C 14.83411133 19.95915805 5.03995624
C 14.83411133 19.95915805 0.00463300
Si 16.37195841 20.84703447 19.51532151
Si 14.83411133 21.73491089 14.47999827
Si 14.83411133 19.95915805 16.99818760
Si 14.83411133 19.95915805 11.96286436
C 16.37195841 20.84703447 17.62164329
C 14.83411133 21.73491089 12.58632005
C 14.83411133 19.95915805 15.11060272
C 14.83411133 19.95915805 10.07527948
Si 16.37195841 20.84703447 29.58596799
Si 14.83411133 21.73491089 24.55064475
Si 14.83411133 19.95915805 27.06883408
Si 14.83411133 19.95915805 22.03351084
C 16.37195841 20.84703447 27.69228977
C 14.83411133 21.73491089 22.65696653
C 14.83411133 19.95915805 25.18124920
C 14.83411133 19.95915805 20.14592596
Si 17.90980548 23.51066374 39.65661447
Si 16.37195841 24.39854016 34.62129123
Si 16.37195841 22.62278731 37.13948056
Si 16.37195841 22.62278731 32.10415732
C 17.90980548 23.51066374 37.76293625
C 16.37195841 24.39854016 32.72761301
C 16.37195841 22.62278731 35.25189568
C 16.37195841 22.62278731 30.21657244
Si 17.90980548 23.51066374 49.72726095
Si 16.37195841 24.39854016 44.69193771
Si 16.37195841 22.62278731 47.21012704
Si 16.37195841 22.62278731 42.17480380
C 17.90980548 23.51066374 47.83358273
C 16.37195841 24.39854016 42.79825949
C 16.37195841 22.62278731 45.32254216
C 16.37195841 22.62278731 40.28721892
Si 17.90980548 23.51066374 9.44467503
Si 16.37195841 24.39854016 4.40935179
Si 16.37195841 22.62278731 6.92754112
Si 16.37195841 22.62278731 1.89221788
C 17.90980548 23.51066374 7.55099681
C 16.37195841 24.39854016 2.51567357
C 16.37195841 22.62278731 5.03995624
C 16.37195841 22.62278731 0.00463300
Si 17.90980548 23.51066374 19.51532151
Si 16.37195841 24.39854016 14.47999827
Si 16.37195841 22.62278731 16.99818760
Si 16.37195841 22.62278731 11.96286436
C 17.90980548 23.51066374 17.62164329
C 16.37195841 24.39854016 12.58632005
C 16.37195841 22.62278731 15.11060272
C 16.37195841 22.62278731 10.07527948
Si 17.90980548 23.51066374 29.58596799
Si 16.37195841 24.39854016 24.55064475
Si 16.37195841 22.62278731 27.06883408
Si 16.37195841 22.62278731 22.03351084
C 17.90980548 23.51066374 27.69228977
C 16.37195841 24.39854016 22.65696653
C 16.37195841 22.62278731 25.18124920
C 16.37195841 22.62278731 20.14592596
Si 16.37195841 26.17429300 39.65661447
Si 14.83411133 27.06216943 34.62129123
Si 14.83411133 25.28641658 37.13948056
Si 14.83411133 25.28641658 32.10415732
C 16.37195841 26.17429300 37.76293625
C 14.83411133 27.06216943 32.72761301
C 14.83411133 25.28641658 35.25189568
C 14.83411133 25.28641658 30.21657244
Si 16.37195841 26.17429300 49.72726095
Si 14.83411133 27.06216943 44.69193771
Si 14.83411133 25.28641658 47.21012704
Si 14.83411133 25.28641658 42.17480380
C 16.37195841 26.17429300 47.83358273
C 14.83411133 27.06216943 42.79825949
C 14.83411133 25.28641658 45.32254216
C 14.83411133 25.28641658 40.28721892
Si 16.37195841 26.17429300 9.44467503
Si 14.83411133 27.06216943 4.40935179
Si 14.83411133 25.28641658 6.92754112
Si 14.83411133 25.28641658 1.89221788
C 16.37195841 26.17429300 7.55099681
C 14.83411133 27.06216943 2.51567357
C 14.83411133 25.28641658 5.03995624
C 14.83411133 25.28641658 0.00463300
Si 16.37195841 26.17429300 19.51532151
Si 14.83411133 27.06216943 14.47999827
Si 14.83411133 25.28641658 16.99818760
Si 14.83411133 25.28641658 11.96286436
C 16.37195841 26.17429300 17.62164329
C 14.83411133 27.06216943 12.58632005
C 14.83411133 25.28641658 15.11060272
C 14.83411133 25.28641658 10.07527948
Si 16.37195841 26.17429300 29.58596799
Si 14.83411133 27.06216943 24.55064475
Si 14.83411133 25.28641658 27.06883408
Si 14.83411133 25.28641658 22.03351084
C 16.37195841 26.17429300 27.69228977
C 14.83411133 27.06216943 22.65696653
C 14.83411133 25.28641658 25.18124920
C 14.83411133 25.28641658 20.14592596
Si 14.83411133 28.83792227 39.65661447
Si 13.29626426 29.72579869 34.62129123
Si 13.29626426 27.95004585 37.13948056
Si 13.29626426 27.95004585 32.10415732
C 14.83411133 28.83792227 37.76293625
C 13.29626426 29.72579869 32.72761301
C 13.29626426 27.95004585 35.25189568
C 13.29626426 27.95004585 30.21657244
Si 14.83411133 28.83792227 49.72726095
Si 13.29626426 29.72579869 44.69193771
Si 13.29626426 27.95004585 47.21012704
Si 13.29626426 27.95004585 42.17480380
C 14.83411133 28.83792227 47.83358273
C 13.29626426 29.72579869 42.79825949
C 13.29626426 27.95004585 45.32254216
C 13.29626426 27.95004585 40.28721892
Si 14.83411133 28.83792227 9.44467503
Si 13.29626426 29.72579869 4.40935179
Si 13.29626426 27.95004585 6.92754112
Si 13.29626426 27.95004585 1.89221788
C 14.83411133 28.83792227 7.55099681
C 13.29626426 29.72579869 2.51567357
C 13.29626426 27.95004585 5.03995624
C 13.29626426 27.95004585 0.00463300
Si 14.83411133 28.83792227 19.51532151
Si 13.29626426 29.72579869 14.47999827
Si 13.29626426 27.95004585 16.99818760
Si 13.29626426 27.95004585 11.96286436
C 14.83411133 28.83792227 17.62164329
C 13.29626426 29.72579869 12.58632005
C 13.29626426 27.95004585 15.11060272
C 13.29626426 27.95004585 10.07527948
Si 14.83411133 28.83792227 29.58596799
Si 13.29626426 29.72579869 24.55064475
Si 13.29626426 27.95004585 27.06883408
Si 13.29626426 27.95004585 22.03351084
C 14.83411133 28.83792227 27.69228977
C 13.29626426 29.72579869 22.65696653
C 13.29626426 27.95004585 25.18124920
C 13.29626426 27.95004585 20.14592596
Si 13.29626426 31.50155154 39.65661447
Si 11.75841718 32.38942796 34.62129123
Si 11.75841718 30.61367512 37.13948056
Si 11.75841718 30.61367512 32.10415732
C 13.29626426 31.50155154 37.76293625
C 11.75841718 32.38942796 32.72761301
C 11.75841718 30.61367512 35.25189568
C 11.75841718 30.61367512 30.21657244
Si 13.29626426 31.50155154 49.72726095
Si 11.75841718 32.38942796 44.69193771
Si 11.75841718 30.61367512 47.21012704
Si 11.75841718 30.61367512 42.17480380
C 13.29626426 31.50155154 47.83358273
C 11.75841718 32.38942796 42.79825949
C 11.75841718 30.61367512 45.32254216
C 11.75841718 30.61367512 40.28721892
Si 13.29626426 31.50155154 9.44467503
Si 11.75841718 32.38942796 4.40935179
Si 11.75841718 30.61367512 6.92754112
Si 11.75841718 30.61367512 1.89221788