106  
636  

1    
  0.0100000000000000   0.0000000000000000   0.0000000000000000
  -0.0934814700   -0.0019495500   -0.0021970400
   0.0000216100    0.0017297300   -0.0008696300
  -0.0000230100   -0.0007201400    0.0056968100
   0.0003329900   -0.0038727900   -0.0006897400
  -0.0001024000   -0.0009714500    0.0021243300
   0.0000073100    0.0018060000   -0.0001252900
  -0.0000055100   -0.0003879500    0.0022466600
   0.0000535900    0.0002598600    0.0017829400
   0.0000730000   -0.0015712700   -0.0037940100
  -0.0001779600    0.0018506300   -0.0009110800
  -0.0000282600   -0.0017695600    0.0051799000
   0.0000743700   -0.0041139400   -0.0012124000
   0.0013687000   -0.0000591400    0.0010662300
  -0.0007372000    0.0014059900   -0.0006692900
   0.0001966100   -0.0003599400    0.0022601200
  -0.0002826200    0.0010163600    0.0018950800
   0.0121386200    0.0020722600    0.0033761800
   0.0004231200   -0.0055434500    0.0032481900
   0.0068711700   -0.0095962300    0.0023080500
   0.0706308400   -0.0038753600    0.0072327500
   0.0000940100   -0.0058691100   -0.0057863900
   0.0000220500   -0.0127136600    0.0139973800
   0.0008338800    0.0031163200    0.0019077400
  -0.0010337300   -0.0032618300   -0.0039531300
   0.0004854300   -0.0029868400    0.0083803200
   0.0001162000    0.0115493000   -0.0066752200
  -0.0000933000    0.0026476600    0.0034522700
   0.0000349800    0.0037502000    0.0006575900
  -0.0001095000   -0.0074348100    0.0116813400
  -0.0000783900   -0.0048048200    0.0040010100
   0.0000695300   -0.0096480000    0.0028639700
  -0.0000593600   -0.0047215600    0.0054961100
   0.0000423700   -0.0035307000   -0.0048782700
   0.0001639800   -0.0122159900    0.0137414100
  -0.0004994200    0.0033627500    0.0023853200
   0.0000334000   -0.0031171600   -0.0038469400
   0.0003013600   -0.0033264000    0.0089363100
  -0.0006188700    0.0113288600   -0.0071886600
   0.0058076400    0.0039811000    0.0005910800
  -0.0000012300   -0.0073448200    0.0116948200
  -0.0001237600    0.0037529500   -0.0033756600
  -0.0000350900    0.0067795500   -0.0005976500
  -0.0000222700    0.0047153600   -0.0024234800
  -0.0000032900    0.0068232300   -0.0009404200
  -0.0000291100    0.0046593500   -0.0022494500
  -0.0001026100    0.0039774700   -0.0032750300
  -0.0003414400   -0.0082442800    0.0029115200
  -0.0000308100   -0.0056358500    0.0007659500
  -0.0001650500   -0.0075139600    0.0023377200
  -0.0001531300   -0.0055980400    0.0009885400
  -0.0002986400   -0.0076476900    0.0029868000
  -0.0000496500   -0.0073516600    0.0026151000
   0.0000819700    0.0058361500    0.0038850900
  -0.0000383100    0.0034294500    0.0002928500
   0.0000281100    0.0038455500    0.0040752900
   0.0000335500    0.0037975200    0.0033056600
   0.0001293000    0.0059268800    0.0043504200
   0.0000582900    0.0032249200    0.0000755200
   0.0001081000    0.0049254700   -0.0007703500
   0.0000611100   -0.0080425100   -0.0060935100
  -0.0003793700   -0.0066196500    0.0033152700
  -0.0000755500    0.0044788800   -0.0012126400
   0.0003083400   -0.0064926000    0.0030164600
   0.0000649100   -0.0085186200   -0.0059379800
   0.0000094200    0.0047180900   -0.0127516600
   0.0001915800   -0.0036910800   -0.0122258000
  -0.0002395100    0.0064226900   -0.0054364200
  -0.0001127600   -0.0036078100   -0.0127279700
  -0.0000415000    0.0051482100   -0.0132147100
   0.0001454000    0.0059419800   -0.0049489500
   0.0000776800    0.0069230500    0.0067653200
   0.0000459200    0.0080009600    0.0058321800
   0.0001387700    0.0054396600    0.0066977300
   0.0001546800    0.0058431400    0.0067316700
   0.0000466600    0.0070214200    0.0062370100
  -0.0000149500    0.0079852100    0.0060750100
   0.0001466300   -0.0050792600    0.0067107500
  -0.0000268500   -0.0012717300    0.0066371800
   0.0004246800   -0.0065312200    0.0073661900
   0.0002517400   -0.0067478200    0.0072104700
  -0.0000092300   -0.0055030400    0.0067568600
   0.0000645700   -0.0012236100    0.0068176000
  -0.0000859600    0.0050194300    0.0020698500
  -0.0007704900    0.0071057600    0.0001207200
  -0.0000059400    0.0067286800   -0.0023288700
  -0.0010513300    0.0074317000    0.0004550300
  -0.0011222700    0.0049947900    0.0015220700
   0.0001233400    0.0066612900   -0.0020617000
   0.0000024200    0.0015386600   -0.0022918900
  -0.0002969600    0.0025647900    0.0008086400
   0.0000839600   -0.0070994100   -0.0048513000
   0.0000676800    0.0015169800   -0.0018459900
  -0.0000788100   -0.0075017700   -0.0049783900
   0.0003649000    0.0025699300    0.0008433800
   0.0000990000    0.0001406100    0.0016549900
  -0.0000397500   -0.0021229800   -0.0043024500
  -0.0005104300    0.0035647800   -0.0035566200
   0.0000649500   -0.0021887100   -0.0036772800
   0.0001148900   -0.0005565000    0.0018907700
  -0.0000286100    0.0026780200   -0.0039398200
  -0.0000400100    0.0012170300   -0.0144301800
  -0.0000090800    0.0014448700   -0.0144751000
   0.0000314400    0.0015524300   -0.0150695600
  -0.0000157200    0.0012364900   -0.0144535200
  -0.0000233900    0.0014131600   -0.0142041400
  -0.0000169400    0.0016826900   -0.0148839700

1    
 -0.0100000000000000   0.0000000000000000   0.0000000000000000
   0.0937222600   -0.0019484100   -0.0022249500
   0.0002004000    0.0017300000   -0.0008684400
   0.0000717600   -0.0007239200    0.0057047800
  -0.0001891400   -0.0038717700   -0.0006913300
   0.0000747600   -0.0009708400    0.0021246600
   0.0000658900    0.0018041700   -0.0001273200
   0.0000876700   -0.0003887400    0.0022345500
   0.0001093200    0.0002621000    0.0017793300
   0.0001354200   -0.0015706100   -0.0037910800
  -0.0000341800    0.0018509200   -0.0009101700
   0.0000241600   -0.0017689000    0.0051761600
   0.0001713600   -0.0041152200   -0.0012109200
  -0.0012716600   -0.0000604000    0.0010688100
   0.0009303600    0.0014061600   -0.0006712200
   0.0002298600   -0.0003617000    0.0022471400
   0.0003509000    0.0010155600    0.0018976900
  -0.0123857000    0.0020666500    0.0033734800
  -0.0002676400   -0.0055435200    0.0032541900
  -0.0073211900   -0.0095963700    0.0023077100
  -0.0705092000   -0.0038750000    0.0072351100
   0.0000748400   -0.0058687800   -0.0057912400
   0.0000763600   -0.0127087000    0.0139998600
  -0.0002000500    0.0031170100    0.0019080200
   0.0005181000   -0.0032629100   -0.0039551500
  -0.0001733700   -0.0029809400    0.0083857600
   0.0001706200    0.0115459300   -0.0066748400
  -0.0000654100    0.0026485500    0.0034525200
   0.0001711500    0.0037539300    0.0006590100
  -0.0000503000   -0.0074351600    0.0116795600
  -0.0000322500   -0.0048042500    0.0040086000
   0.0001692800   -0.0096457300    0.0028645900
  -0.0000292300   -0.0047204900    0.0054956000
   0.0000959800   -0.0035261100   -0.0048749400
  -0.0003223300   -0.0122123300    0.0137427400
   0.0006999300    0.0033595600    0.0023870400
  -0.0004478900   -0.0031194400   -0.0038457800
   0.0003487500   -0.0033300900    0.0089385500
   0.0003655000    0.0113265000   -0.0071859000
  -0.0056849300    0.0039796200    0.0005888000
  -0.0004755700   -0.0073403000    0.0116850000
  -0.0000696000    0.0037530800   -0.0033734600
   0.0000224100    0.0067789500   -0.0005958000
   0.0000315200    0.0047152900   -0.0024219500
   0.0000531800    0.0068229700   -0.0009383400
   0.0000264300    0.0046591300   -0.0022475000
  -0.0000478000    0.0039771500   -0.0032729800
  -0.0002859600   -0.0082443600    0.0029123300
   0.0000213800   -0.0056357700    0.0007665600
  -0.0001123700   -0.0075140600    0.0023384000
  -0.0000995100   -0.0055979400    0.0009893100
  -0.0002442600   -0.0076478900    0.0029875300
   0.0000029500   -0.0073518200    0.0026157400
   0.0001382200    0.0058364400    0.0038853700
   0.0000162500    0.0034298700    0.0002930100
   0.0000800900    0.0038455200    0.0040754700
   0.0000898400    0.0037972300    0.0033056700
   0.0001840300    0.0059271000    0.0043506800
   0.0001123600    0.0032252900    0.0000758200
   0.0001828700    0.0049256500   -0.0007702100
   0.0001162200   -0.0080423100   -0.0060933900
  -0.0003200600   -0.0066198400    0.0033154200
  -0.0000202000    0.0044789800   -0.0012122100
   0.0003479200   -0.0064924700    0.0030163600
   0.0001181800   -0.0085186100   -0.0059380400
  -0.0000442900    0.0047175000   -0.0127504900
   0.0000792800   -0.0036913700   -0.0122269100
  -0.0001844200    0.0064237000   -0.0054370100
  -0.0000592100   -0.0036082000   -0.0127279100
   0.0000144600    0.0051485600   -0.0132145200
   0.0003148200    0.0059422600   -0.0049492700
   0.0001319400    0.0069230300    0.0067673300
   0.0001002500    0.0080011600    0.0058348500
   0.0001932700    0.0054395400    0.0066997900
   0.0002092000    0.0058434300    0.0067340000
   0.0001011800    0.0070217300    0.0062391100
   0.0000394700    0.0079854000    0.0060773800
   0.0002011500   -0.0050794800    0.0067126900
   0.0000269900   -0.0012723400    0.0066378200
   0.0004790600   -0.0065318300    0.0073667900
   0.0003062700   -0.0067481800    0.0072114600
   0.0000453700   -0.0055036200    0.0067587200
   0.0001187100   -0.0012245000    0.0068187900
  -0.0000314500    0.0050190600    0.0020703400
  -0.0007160700    0.0071053000    0.0001214700
   0.0000486400    0.0067279400   -0.0023287900
  -0.0009970700    0.0074310100    0.0004554600
  -0.0010682500    0.0049946300    0.0015221800
   0.0001772700    0.0066609000   -0.0020619200
   0.0000568500    0.0015388100   -0.0022918800
  -0.0002466100    0.0025647000    0.0008088100
   0.0001381800   -0.0070992100   -0.0048515800
   0.0001247800    0.0015169500   -0.0018460000
  -0.0000225000   -0.0075014600   -0.0049786300
   0.0004193800    0.0025699100    0.0008433700
   0.0001487200    0.0001407600    0.0016558200
  -0.0000167500   -0.0021232400   -0.0043024600
  -0.0004549500    0.0035650500   -0.0035559300
   0.0001324200   -0.0021887200   -0.0036763500
   0.0001691600   -0.0005564400    0.0018911500
   0.0000634400    0.0026784900   -0.0039396500
   0.0000146000    0.0012169800   -0.0144307300
   0.0000454000    0.0014445400   -0.0144779700
   0.0000857000    0.0015522200   -0.0150714100
   0.0000387800    0.0012360900   -0.0144550400
   0.0000309300    0.0014131200   -0.0142068600
   0.0000372400    0.0016822300   -0.0148857900

1    
  0.0000000000000000   0.0100000000000000   0.0000000000000000
   0.0001203500   -0.1518860700   -0.0336115200
   0.0001110500    0.0239575000   -0.0227091800
   0.0000242100   -0.0059124400    0.0118925100
   0.0000716200    0.0151906500    0.0256906000
  -0.0000137000    0.0132758900    0.0052805100
   0.0000367500    0.0067561400   -0.0015348700
   0.0000415400    0.0006935900    0.0062604700
   0.0000812900    0.0040359100    0.0055220600
   0.0001044600    0.0086921200   -0.0034107700
  -0.0001056600    0.0112099300    0.0041042600
  -0.0000016400    0.0016730900    0.0035437600
   0.0001225400    0.0050350800   -0.0053475300
   0.0000488100    0.0328788100    0.0078829900
   0.0000971400   -0.0047170600    0.0229841600
   0.0002133900    0.0026324900   -0.0017935100
   0.0000340200   -0.0075873600   -0.0220379400
  -0.0001216100    0.0345773800    0.0068573200
   0.0000780900   -0.0058979400    0.0237164800
  -0.0002249200    0.0175690600   -0.0092753500
   0.0000600600    0.0362409500    0.0262787500
   0.0000842600    0.0012575600   -0.0065958100
   0.0000491700   -0.0149702900    0.0162925300
   0.0003169800   -0.0094154800   -0.0007609400
  -0.0002578300   -0.0100362100   -0.0091188200
   0.0001564600   -0.0024122100   -0.0029320800
   0.0001434100    0.0095019700   -0.0056023300
  -0.0000795000   -0.0039129700    0.0032790300
   0.0001030200   -0.0029310400   -0.0023868200
  -0.0000799600   -0.0080671600    0.0088143200
  -0.0000552200   -0.0067306300   -0.0003851600
   0.0001194100   -0.0159276200    0.0033122900
  -0.0000442600   -0.0109129800    0.0043607900
   0.0000691500   -0.0057785900   -0.0050462400
  -0.0000790300   -0.0135412900    0.0055723500
   0.0001002200   -0.0070164900   -0.0026828600
  -0.0002071600   -0.0135430800    0.0002334500
   0.0003249900   -0.0061288800    0.0131225500
  -0.0001264800    0.0173479400   -0.0171612800
   0.0000612200    0.0099527900    0.0109651500
  -0.0002386900   -0.0109917200    0.0219554900
  -0.0000967200    0.0037495300   -0.0033036400
  -0.0000062900    0.0068424500   -0.0006480000
   0.0000046400    0.0046516400   -0.0025437000
   0.0000248600    0.0067579700   -0.0009597800
  -0.0000017200    0.0047214300   -0.0021933200
  -0.0000753000    0.0039835900   -0.0034013800
  -0.0003137600   -0.0083704900    0.0030181400
  -0.0000047300   -0.0056338300    0.0004732700
  -0.0001386300   -0.0073713400    0.0024560600
  -0.0001262800   -0.0055899200    0.0012497300
  -0.0002714800   -0.0075502900    0.0028210100
  -0.0000233600   -0.0074727900    0.0024124400
   0.0001101800    0.0055812800    0.0046384800
  -0.0000110600    0.0033892100   -0.0003988500
   0.0000540700    0.0042508300    0.0039422800
   0.0000616200    0.0033840600    0.0034815600
   0.0001566300    0.0060725800    0.0035416300
   0.0000852100    0.0033885500    0.0005787300
   0.0001454800    0.0041672100   -0.0007290300
   0.0000886200   -0.0071581300   -0.0071053600
  -0.0003497200   -0.0063999700    0.0047661000
  -0.0000478500    0.0053145100   -0.0010598700
   0.0003280900   -0.0069186600    0.0005666400
   0.0000914700   -0.0092854200   -0.0042852000
  -0.0000173800    0.0049717300   -0.0060858000
   0.0001347700   -0.0068344000   -0.0241200600
  -0.0002120400    0.0088795000   -0.0064288600
  -0.0000860200   -0.0014790200   -0.0092444900
  -0.0000135500    0.0070710700   -0.0162079000
   0.0002299900    0.0022612500    0.0004807100
   0.0001048100    0.0069824500    0.0067874800
   0.0000731300    0.0079769100    0.0058043200
   0.0001658600    0.0054066200    0.0067495000
   0.0001817900    0.0058778400    0.0067108500
   0.0000736500    0.0069639400    0.0062490200
   0.0000121100    0.0080103800    0.0061364400
   0.0001732900   -0.0050192300    0.0065684600
   0.0000001900   -0.0011905000    0.0068211100
   0.0004514400   -0.0066727000    0.0074311400
   0.0002792300   -0.0065967400    0.0072232200
   0.0000178400   -0.0055591900    0.0069439200
   0.0000925000   -0.0013156100    0.0066990600
  -0.0000584100    0.0053512700    0.0018749900
  -0.0007432600    0.0071209700    0.0005594800
   0.0000217000    0.0064014100   -0.0025462000
  -0.0010247900    0.0074049300   -0.0000042300
  -0.0010954500    0.0046560100    0.0017943200
   0.0001500700    0.0070065700   -0.0017342800
   0.0000295000    0.0007289200   -0.0021367400
  -0.0002719300    0.0033396700    0.0018994800
   0.0001109700   -0.0069140900   -0.0061161100
   0.0000962000    0.0024120200   -0.0021540200
  -0.0000506300   -0.0079648700   -0.0036565100
   0.0003920600    0.0020046200    0.0000279300
   0.0001237600    0.0013166900   -0.0013827900
  -0.0000281700   -0.0021810600    0.0002710400
  -0.0004826500    0.0015492600   -0.0038899200
   0.0000987200   -0.0032413200   -0.0059151600
   0.0001418600   -0.0021334400    0.0032709400
   0.0000176100    0.0061947100   -0.0040212400
  -0.0000127800    0.0012275000   -0.0144339400
   0.0000181900    0.0014527800   -0.0144726600
   0.0000585500    0.0015500100   -0.0150604200
   0.0000114900    0.0012278500   -0.0144454200
   0.0000036400    0.0014051000   -0.0142035100
   0.0000102600    0.0016848600   -0.0148898800

1    
  0.0000000000000000  -0.0100000000000000   0.0000000000000000
   0.0001233500    0.1477128400    0.0304547300
   0.0001108800   -0.0204175800    0.0208290000
   0.0000240300    0.0044766800   -0.0004401000
   0.0000715700   -0.0228789800   -0.0268826700
  -0.0000132500   -0.0151801600   -0.0010237300
   0.0000366000   -0.0031326100    0.0012738500
   0.0000413200   -0.0014780200   -0.0017646900
   0.0000814800   -0.0035327000   -0.0019501400
   0.0001038100   -0.0118108200   -0.0041702600
  -0.0001062100   -0.0074993000   -0.0059490300
  -0.0000017100   -0.0051867400    0.0067424200
   0.0001224400   -0.0132776800    0.0029239200
   0.0000489000   -0.0332010800   -0.0058753200
   0.0000972900    0.0075744000   -0.0242634500
   0.0002133100   -0.0033406500    0.0063101000
   0.0000337100    0.0097097600    0.0259571700
  -0.0001257100   -0.0297674300    0.0005432600
   0.0000775600   -0.0051809800   -0.0171155100
  -0.0002250600   -0.0347286600    0.0122482200
   0.0000613100   -0.0464223100   -0.0144818900
   0.0000845400   -0.0130577900   -0.0050137000
   0.0000491900   -0.0104389700    0.0117574400
   0.0003168400    0.0156458900    0.0046087100
  -0.0002576100    0.0035637200    0.0011761500
   0.0001558200   -0.0034823100    0.0197339600
   0.0001433400    0.0136010100   -0.0077023100
  -0.0000792000    0.0092192000    0.0036552800
   0.0001029500    0.0104525200    0.0037282400
  -0.0000800400   -0.0067817200    0.0145534400
  -0.0000552300   -0.0028766200    0.0084638300
   0.0001193500   -0.0033645000    0.0024572000
  -0.0000443700    0.0014898700    0.0066552900
   0.0000691300   -0.0011867000   -0.0045922800
  -0.0000790900   -0.0109215000    0.0218872700
   0.0000999100    0.0137558900    0.0075223300
  -0.0002073000    0.0073433200   -0.0079081000
   0.0003248600   -0.0005333400    0.0048466600
  -0.0001268600    0.0053486400    0.0027357900
   0.0000614000   -0.0032361900   -0.0091900300
  -0.0002377500   -0.0037224200    0.0014472800
  -0.0000967500    0.0037693700   -0.0034288000
  -0.0000064400    0.0067279100   -0.0005292200
   0.0000045300    0.0047911600   -0.0022856300
   0.0000247800    0.0069006700   -0.0009027300
  -0.0000016000    0.0046100000   -0.0022873000
  -0.0000752700    0.0039825900   -0.0031307000
  -0.0003138000   -0.0081060000    0.0028279700
  -0.0000047600   -0.0056253600    0.0010796100
  -0.0001386700   -0.0076440100    0.0022407000
  -0.0001262900   -0.0055933800    0.0007503400
  -0.0002713900   -0.0077332200    0.0031731700
  -0.0000233500   -0.0072192200    0.0028395700
   0.0001101900    0.0061035800    0.0031564500
  -0.0000110400    0.0034811400    0.0010041700
   0.0000540300    0.0034539300    0.0042259800
   0.0000616400    0.0042216700    0.0031530000
   0.0001566100    0.0057931600    0.0051767900
   0.0000852500    0.0030758500   -0.0004065800
   0.0001454500    0.0056930900   -0.0007876900
   0.0000886100   -0.0089146200   -0.0050692600
  -0.0003497500   -0.0068238200    0.0018839900
  -0.0000478800    0.0036599900   -0.0013516600
   0.0003281000   -0.0060580800    0.0054765100
   0.0000915100   -0.0077402800   -0.0075622500
  -0.0000175400    0.0044892500   -0.0193669900
   0.0001359300   -0.0005569100   -0.0003608200
  -0.0002119600    0.0039821300   -0.0044430900
  -0.0000860400   -0.0057094900   -0.0162167400
  -0.0000135600    0.0032372400   -0.0102228900
   0.0002300900    0.0096248100   -0.0103194600
   0.0001046200    0.0068766800    0.0067520100
   0.0000731200    0.0080377900    0.0058694300
   0.0001657800    0.0054847100    0.0066556100
   0.0001822100    0.0058216500    0.0067626900
   0.0000741700    0.0070914000    0.0062353200
   0.0000121900    0.0079739500    0.0060225200
   0.0001735800   -0.0051274600    0.0068752400
  -0.0000000900   -0.0013405600    0.0064727900
   0.0004520100   -0.0063787700    0.0073225900
   0.0002790500   -0.0068864900    0.0072172000
   0.0000178100   -0.0054356600    0.0065928300
   0.0000921300   -0.0011200500    0.0069574000
  -0.0000585400    0.0047004600    0.0022808900
  -0.0007431500    0.0071035900   -0.0002980200
   0.0000214400    0.0070658900   -0.0020930000
  -0.0010245800    0.0074685700    0.0009310000
  -0.0010952800    0.0053452400    0.0012700300
   0.0001501100    0.0063298400   -0.0023713500
   0.0000295900    0.0023588800   -0.0024255300
  -0.0002719400    0.0018066100   -0.0002651600
   0.0001110700   -0.0072746100   -0.0035760200
   0.0000962400    0.0006366500   -0.0015269700
  -0.0000506500   -0.0070236900   -0.0062785300
   0.0003921600    0.0031437200    0.0016753200
   0.0001238900   -0.0010277600    0.0046910900
  -0.0000281600   -0.0020443200   -0.0088463600
  -0.0004827400    0.0055875300   -0.0031999800
   0.0000987500   -0.0011384200   -0.0014241700
   0.0001421200    0.0010306900    0.0005355200
   0.0000172900   -0.0008120600   -0.0038551200
  -0.0000125700    0.0012185700   -0.0144147900
   0.0000181500    0.0014492700   -0.0144680500
   0.0000585900    0.0015672200   -0.0150692300
   0.0000113700    0.0012564400   -0.0144512200
   0.0000039200    0.0014330900   -0.0141933500
   0.0000102100    0.0016922800   -0.0148674400

1    
  0.0000000000000000   0.0000000000000000   0.0100000000000000
   0.0001223800   -0.0331230300   -0.1485435000
   0.0001114400   -0.0184915100   -0.0012001700
   0.0000251100    0.0015877500    0.0144238800
   0.0000710900    0.0237754400    0.0029454500
  -0.0000139700    0.0001020900   -0.0130027500
   0.0000364200    0.0001969000   -0.0059793600
   0.0000416900    0.0015898400    0.0030985900
   0.0000812100    0.0002568400   -0.0035693300
   0.0001046400   -0.0011946800   -0.0116363300
  -0.0001053200    0.0039942300   -0.0069315500
  -0.0000017900   -0.0018309800    0.0015421500
   0.0001228000   -0.0067237100   -0.0075560900
   0.0000483600    0.0094246000   -0.0349190400
   0.0000965500    0.0140052700    0.0213163000
   0.0002135100   -0.0018069700    0.0018284800
   0.0000343600   -0.0081695900    0.0103452200
  -0.0001216700   -0.0026323800    0.0394553500
   0.0000777400   -0.0027011300   -0.0007063800
  -0.0002256600   -0.0198698900    0.0320527300
   0.0000596300    0.0145827500    0.0624331900
   0.0000842800   -0.0071517900   -0.0138105300
   0.0000491000   -0.0108784600    0.0170461800
   0.0003166700    0.0134443600    0.0116468600
  -0.0002577600   -0.0157170400    0.0041563800
   0.0001560500   -0.0060481300    0.0031136900
   0.0001432000    0.0115981600   -0.0032032800
  -0.0000792500    0.0040971300    0.0090178100
   0.0001029100    0.0031819000    0.0079251300
  -0.0000800000   -0.0085132500    0.0134881800
  -0.0000554200   -0.0058172100    0.0091244500
   0.0001193900   -0.0118810500    0.0067386900
  -0.0000446800   -0.0027126000    0.0099860000
   0.0000690800   -0.0018217000   -0.0016077800
  -0.0000790700   -0.0164988200    0.0100879500
   0.0001002000   -0.0004751500    0.0108182400
  -0.0002073000   -0.0005764200    0.0002649100
   0.0003249500   -0.0032806400    0.0128074700
  -0.0001266000    0.0108630900   -0.0159844800
   0.0000613800    0.0165201100    0.0251010100
  -0.0002380800   -0.0056760500    0.0112499000
  -0.0000967200    0.0037880800   -0.0027064100
  -0.0000063500    0.0067434600   -0.0000551100
   0.0000047000    0.0046598600   -0.0017602300
   0.0000248900    0.0068221300   -0.0002323900
  -0.0000013600    0.0046762700   -0.0016649100
  -0.0000751700    0.0039067500   -0.0026909600
  -0.0003137100   -0.0082232200    0.0036378300
  -0.0000046500   -0.0057559500    0.0012477000
  -0.0001387700   -0.0074709900    0.0026949700
  -0.0001262800   -0.0055081800    0.0015528000
  -0.0002714700   -0.0077144200    0.0033046100
  -0.0000233200   -0.0074320800    0.0032884400
   0.0001100600    0.0060051500    0.0047213300
  -0.0000111000    0.0031628600    0.0011846500
   0.0000539900    0.0038974900    0.0040480500
   0.0000616400    0.0036739800    0.0045014200
   0.0001566100    0.0057072800    0.0046310400
   0.0000852500    0.0035018600    0.0003017300
   0.0001454200    0.0046208800    0.0012586000
   0.0000886100   -0.0084880700   -0.0065710400
  -0.0003497200   -0.0059467700    0.0033763000
  -0.0000479200    0.0048354500   -0.0019528300
   0.0003281400   -0.0072324800    0.0037121200
   0.0000914900   -0.0081693700   -0.0043991800
  -0.0000174200    0.0071819900   -0.0095508400
   0.0001355100   -0.0058770400   -0.0089689600
  -0.0002120100    0.0060071900   -0.0083894100
  -0.0000860700   -0.0019211500   -0.0159721600
  -0.0000135800    0.0029646800   -0.0154520900
   0.0002299300    0.0062091300    0.0026406300
   0.0001046500    0.0069151900    0.0063993000
   0.0000730200    0.0079409400    0.0055098500
   0.0001656900    0.0054510300    0.0063925300
   0.0001818000    0.0057941800    0.0063737100
   0.0000737800    0.0069920800    0.0059408000
   0.0000121200    0.0080081200    0.0057351300
   0.0001737000   -0.0051914100    0.0060367300
   0.0000002800   -0.0011951400    0.0059771100
   0.0004518900   -0.0065535100    0.0069094000
   0.0002790000   -0.0067613000    0.0064745100
   0.0000176500   -0.0054299900    0.0062306200
   0.0000919300   -0.0013419400    0.0062887700
  -0.0000586600    0.0048859100    0.0011543200
  -0.0007431900    0.0073687100   -0.0003964600
   0.0000213000    0.0065384000   -0.0026315700
  -0.0010243700    0.0071254600   -0.0002060800
  -0.0010952000    0.0050904100    0.0012715200
   0.0001502700    0.0068168300   -0.0028928800
   0.0000294800    0.0015305300   -0.0019246400
  -0.0002719300    0.0031273000   -0.0003107100
   0.0001111300   -0.0077519500   -0.0058790400
   0.0000962100    0.0014549500   -0.0034727200
  -0.0000505200   -0.0069258100   -0.0051245200
   0.0003920400    0.0020379900    0.0007900300
   0.0001238500   -0.0013284900   -0.0008128500
  -0.0000282200   -0.0003237200   -0.0052388900
  -0.0004827300    0.0032663200   -0.0021434600
   0.0000986200   -0.0040251900   -0.0033773000
   0.0001419300    0.0004208900    0.0029929600
   0.0000173300    0.0033777100   -0.0070475500
  -0.0000128300    0.0011971300   -0.0145355600
   0.0000180300    0.0014316000   -0.0145821900
   0.0000585000    0.0015408900   -0.0151713900
   0.0000113600    0.0012188500   -0.0145491600
   0.0000036900    0.0013879200   -0.0142977000
   0.0000101500    0.0016561100   -0.0149819300

1    
  0.0000000000000000   0.0000000000000000  -0.0100000000000000
   0.0001218600    0.0298224200    0.1453468300
   0.0001108400    0.0219986200   -0.0004743300
   0.0000244500   -0.0029936100   -0.0028574800
   0.0000723600   -0.0314123000   -0.0044288700
  -0.0000137400   -0.0020675800    0.0172576400
   0.0000368700    0.0034147100    0.0057415600
   0.0000410400   -0.0023923200    0.0013690000
   0.0000815400    0.0001920700    0.0070860000
   0.0001044300   -0.0019359200    0.0040335400
  -0.0001055800   -0.0002753400    0.0051161000
  -0.0000015400   -0.0017029300    0.0085910500
   0.0001231000   -0.0015297200    0.0050687300
   0.0000485900   -0.0093965800    0.0369355300
   0.0000974000   -0.0114063800   -0.0227272800
   0.0002135600    0.0010836700    0.0026570000
   0.0000346500    0.0101188100   -0.0064852800
  -0.0001256000    0.0072886100   -0.0319982900
   0.0000778100   -0.0084230400    0.0072907700
  -0.0002246500    0.0019135600   -0.0281915600
   0.0000621300   -0.0237920000   -0.0504920600
   0.0000843300   -0.0046879700    0.0020598300
   0.0000490400   -0.0145698100    0.0110119300
   0.0003169900   -0.0072156400   -0.0078191000
  -0.0002580000    0.0092792200   -0.0120418600
   0.0001556700    0.0000716700    0.0136404300
   0.0001433500    0.0114886700   -0.0101166700
  -0.0000792500    0.0011939300   -0.0021047800
   0.0001030000    0.0043256800   -0.0065479000
  -0.0000799300   -0.0063783400    0.0098905100
  -0.0000551200   -0.0038072600   -0.0010615300
   0.0001192800   -0.0074510400   -0.0009679700
  -0.0000443700   -0.0067245100    0.0010303300
   0.0000689600   -0.0050788800   -0.0079631700
  -0.0000790300   -0.0079649100    0.0174016700
   0.0000998800    0.0071429900   -0.0060152500
  -0.0002074900   -0.0056788200   -0.0079214300
   0.0003250200   -0.0034470100    0.0052190600
  -0.0001265400    0.0118316100    0.0016374500
   0.0000615500   -0.0087887500   -0.0236105000
  -0.0002384400   -0.0090365600    0.0122047400
  -0.0000966500    0.0037123300   -0.0040278700
  -0.0000064300    0.0068089000   -0.0011238000
   0.0000046200    0.0047648900   -0.0030712100
   0.0000247900    0.0068177700   -0.0016307400
  -0.0000014000    0.0046360800   -0.0028171700
  -0.0000752000    0.0040412500   -0.0038424200
  -0.0003139500   -0.0082718300    0.0022002300
  -0.0000048300   -0.0055212400    0.0002988700
  -0.0001386200   -0.0075629000    0.0019969700
  -0.0001261900   -0.0056944400    0.0004400500
  -0.0002714800   -0.0075875700    0.0026841800
  -0.0000232700   -0.0072775000    0.0019561300
   0.0001102200    0.0056603400    0.0030626400
  -0.0000110300    0.0036904000   -0.0005900400
   0.0000540300    0.0037882600    0.0041154100
   0.0000617000    0.0039145500    0.0021195300
   0.0001567800    0.0061409800    0.0040813400
   0.0000852700    0.0029418400   -0.0001363200
   0.0001454800    0.0052219000   -0.0027956000
   0.0000887000   -0.0076019900   -0.0056036300
  -0.0003497500   -0.0073006200    0.0032682300
  -0.0000479100    0.0041171000   -0.0004600400
   0.0003280200   -0.0057574400    0.0023251200
   0.0000915400   -0.0088757900   -0.0074634100
  -0.0000173700    0.0022452000   -0.0159233700
   0.0001352500   -0.0015121100   -0.0155006900
  -0.0002120300    0.0068336500   -0.0024687000
  -0.0000860200   -0.0052953500   -0.0094723200
  -0.0000135000    0.0073371300   -0.0109740500
   0.0002301000    0.0056603700   -0.0125498500
   0.0001052000    0.0069252200    0.0071268300
   0.0000728500    0.0080555600    0.0061508500
   0.0001660800    0.0054213600    0.0070008100
   0.0001818000    0.0058876400    0.0070865300
   0.0000739600    0.0070451100    0.0065299700
   0.0000119600    0.0079578700    0.0064100500
   0.0001728200   -0.0049731000    0.0074037100
  -0.0000001800   -0.0013546600    0.0073138800
   0.0004519900   -0.0065158400    0.0078400000
   0.0002794200   -0.0067407700    0.0079636400
   0.0000176700   -0.0055842100    0.0073032100
   0.0000918900   -0.0011121200    0.0073638800
  -0.0000590200    0.0051468300    0.0029989800
  -0.0007435600    0.0068347100    0.0006522500
   0.0000212900    0.0069118400   -0.0020154400
  -0.0010246400    0.0077310100    0.0011283900