 106  106
1 1
     9.360186499999996     0.000057000000000    -0.001395500000000
     0.000150000000000    14.979945499999998     3.203312500000000
    -0.000026000000000     3.147272500000000    14.694516500000002
1 2
     0.008939500000000     0.000013500000000     0.000059500000000
    -0.000008500000000    -2.218754000000000     2.176909000000000
    -0.000030000000000     2.024506500000000     0.036292000000000
1 3
     0.004738500000000    -0.000189000000000     0.000398500000000
    -0.000009000000000     0.519456000000000    -0.616630500000000
    -0.000033000000000    -0.229068000000000    -0.864068000000000
1 4
    -0.026106500000000     0.000051000000000    -0.000079500000000
    -0.000002500000000    -1.903481500000000    -2.628663500000000
     0.000063500000000    -2.759387000000000    -0.368716000000000
1 5
     0.008858000000000     0.000030500000000     0.000016500000000
     0.000022500000000    -1.422802500000000    -0.315212000000000
     0.000011500000000    -0.108483500000000     1.513019500000000
1 6
     0.002929000000000    -0.000091500000000    -0.000101500000000
    -0.000007500000000    -0.494437500000000     0.140436000000000
     0.000022500000000     0.160890500000000     0.586046000000000
1 7
     0.004659000000000    -0.000039500000000    -0.000605500000000
    -0.000011000000000    -0.108580500000000    -0.401258000000000
    -0.000032500000000    -0.199108000000000    -0.086479500000000
1 8
     0.002786500000000     0.000112000000000    -0.000180500000000
     0.000009500000000    -0.378430500000000    -0.373610000000000
     0.000016500000000    -0.003238500000000     0.532766500000000
1 9
     0.003121000000000     0.000033000000000     0.000146500000000
    -0.000032500000000    -1.025147000000000    -0.037974500000000
    -0.000010500000000    -0.037062000000000     0.783493500000000
1 10
     0.007189000000000     0.000014500000000     0.000045500000000
    -0.000027500000000    -0.935461500000000    -0.502664500000000
    -0.000013000000000    -0.213478500000000     0.602382500000000
1 11
     0.002621000000000     0.000033000000000    -0.000187000000000
    -0.000003500000000    -0.342991500000000     0.159933000000000
     0.000012500000000     0.006402500000000     0.352445000000000
1 12
     0.004849500000000    -0.000064000000000     0.000074000000000
    -0.000005000000000    -0.915638000000000     0.413572500000000
     0.000015000000000     0.259699500000000     0.631241000000000
1 13
    -0.132018000000000    -0.000063000000000     0.000129000000000
     0.000004500000000    -3.303994500000000    -0.687915500000000
     0.000011500000000    -0.941059000000000     3.592728500000001
1 14
     0.083378000000000     0.000008500000000    -0.000096500000000
     0.000007500000000     0.614573000000000    -2.362380500000000
     0.000042500000000    -1.270582500000000    -2.202179000000000
1 15
     0.001662500000000    -0.000088000000000    -0.000649000000000
    -0.000004000000000    -0.298657000000000     0.405180500000000
     0.000002500000000     0.144532000000000     0.041426000000000
1 16
     0.031676000000000    -0.000040000000000     0.000130500000000
    -0.000015500000000     0.864856000000000     2.399755500000000
     0.000014500000000     0.914420000000000    -0.841525000000000
1 17
    -1.226215999999999    -0.000280500000000    -0.000135000000000
    -0.000205000000000    -3.217240500000000    -0.315703000000000
    -0.000196500000000     0.496049500000000    -3.572682000000000
1 18
    -0.034538000000000    -0.000003500000000     0.000300000000000
    -0.000026500000000     0.035848000000000    -2.041599500000000
     0.000003500000000    -0.286095500000000     0.399857500000000
1 19
    -0.709618000000000    -0.000007000000000    -0.000017000000000
    -0.000007000000000    -2.614886000000000     1.076178500000000
     0.000050500000000     1.089172500000000    -3.012214500000001
1 20
    -7.057001999999996     0.000018000000000     0.000118000000000
     0.000062500000000    -4.133163000000000    -2.038032000000000
     0.000125000000000    -1.918737500000000    -5.646262500000001
1 21
    -0.000958500000000     0.000016500000000    -0.000242500000000
     0.000014000000000    -0.715767500000000     0.079105500000000
     0.000002500000000     0.123191000000000     0.793518000000000
1 22
     0.002715500000000     0.000248000000000     0.000124000000000
     0.000001000000000     0.226566000000000    -0.226754500000000
    -0.000003000000000    -0.184567500000000    -0.301712500000000
1 23
    -0.051696500000000     0.000034500000000     0.000014000000000
    -0.000007000000000     1.253068500000000     0.268482500000000
     0.000016000000000    -1.033000000000000    -0.973298000000000
1 24
     0.077591500000000    -0.000054000000000    -0.000101000000000
     0.000011000000000     0.679996500000000     0.514748500000000
    -0.000012000000000     1.249813000000000    -0.809912000000000
1 25
    -0.032940000000000     0.000295000000000     0.000272000000000
    -0.000032000000000    -0.053505000000000     1.133302000000000
    -0.000019000000000     0.305990000000000     0.526337000000000
1 26
     0.002721000000000    -0.000168500000000     0.000019000000000
    -0.000003500000000     0.204952000000000    -0.104999000000000
     0.000007500000000    -0.005474500000000    -0.345669500000000
1 27
     0.001394500000000     0.000044500000000     0.000012500000000
     0.000015000000000     0.656608500000000     0.018812500000000
     0.000000000000000    -0.145160000000000    -0.556129500000000
1 28
     0.006808500000000     0.000186500000000     0.000071000000000
    -0.000003500000000     0.669178000000000     0.305753000000000
     0.000004500000000     0.057189000000000    -0.723651500000000
1 29
     0.002960000000000    -0.000017500000000    -0.000089000000000
    -0.000004000000000     0.064272000000000     0.286956000000000
     0.000003500000000     0.106745500000000    -0.179883500000000
1 30
     0.002307000000000     0.000028500000000     0.000379500000000
    -0.000000500000000     0.192700500000000     0.442449500000000
     0.000015000000000     0.100497500000000    -0.509299000000000
1 31
     0.004987500000000     0.000113500000000     0.000031000000000
    -0.000003000000000     0.628156000000000    -0.042754500000000
    -0.000005500000000     0.221500500000000    -0.385333000000000
1 32
     0.001506500000000     0.000053500000000    -0.000025500000000
    -0.000005500000000     0.620142500000000     0.114725000000000
     0.000015500000000    -0.200595500000000    -0.447783500000000
1 33
     0.002680500000000     0.000229500000000     0.000166500000000
    -0.000001000000000     0.229594500000000     0.022698000000000
    -0.000006000000000    -0.162859000000000    -0.317769500000000
1 34
    -0.024315500000000     0.000183000000000     0.000066500000000
    -0.000003000000000     0.130989500000000     0.815746000000000
     0.000002000000000     0.426695500000000     0.365686000000000
1 35
     0.059967500000000    -0.000159500000000     0.000086000000000
    -0.000015500000000     1.038619000000000     0.510259500000000
    -0.000016000000000     0.380907000000000    -0.841674500000000
1 36
    -0.024064500000000    -0.000114000000000     0.000058000000000
    -0.000007000000000     1.044320000000000    -0.407077500000000
    -0.000009500000000    -0.255120000000000    -0.409317000000000
1 37
     0.002369500000000    -0.000184500000000     0.000112000000000
    -0.000006500000000     0.279777000000000    -0.413794500000000
     0.000003500000000    -0.008318500000000    -0.379420500000000
1 38
     0.049218500000000    -0.000118000000000     0.000138000000000
    -0.000019000000000    -0.599965000000000     0.994853500000000
     0.000003000000000     0.048426000000000     0.881096500000000
1 39
    -0.574628500000000    -0.000074000000000    -0.000114000000000
     0.000009000000000    -0.659449000000000    -1.007759000000000
     0.000008500000000    -1.265443000000000    -2.435575500000000
1 40
    -0.023717000000000     0.000226000000000    -0.000491000000000
     0.000047000000000     0.363465000000000    -1.025410500000000
    -0.000018000000000    -0.168025500000000     0.047742000000000
1 41
     0.002708000000000     0.000006500000000     0.000110000000000
    -0.000001500000000     0.000992000000000    -0.006258000000000
     0.000003500000000    -0.003787500000000    -0.066073000000000
1 42
     0.002875000000000    -0.000030000000000     0.000092500000000
    -0.000007500000000    -0.005727000000000     0.005939000000000
    -0.000004000000000     0.003272000000000    -0.053434500000000
1 43
     0.002689500000000    -0.000003500000000     0.000076500000000
    -0.000005500000000     0.006976000000000     0.012903500000000
    -0.000004000000000     0.005251500000000    -0.065549000000000
1 44
     0.002823500000000    -0.000013000000000     0.000104000000000
    -0.000004000000000     0.007135000000000     0.002852500000000
    -0.000005000000000    -0.000218000000000    -0.069917500000000
1 45
     0.002777000000000    -0.000011000000000     0.000097500000000
     0.000006000000000    -0.005571500000000    -0.004699000000000
    -0.000002000000000    -0.002009500000000    -0.057613000000000
1 46
     0.002740500000000    -0.000016000000000     0.000102500000000
     0.000001500000000    -0.000050000000000     0.013534000000000
    -0.000001500000000     0.006725000000000    -0.057573000000000
1 47
     0.002774000000000    -0.000004000000000     0.000040500000000
    -0.000002000000000     0.013224500000000    -0.009508500000000
    -0.000012000000000    -0.002430500000000    -0.071880000000000
1 48
     0.002609500000000     0.000004000000000     0.000030500000000
    -0.000001500000000     0.000423500000000     0.030317000000000
    -0.000009000000000     0.011735500000000    -0.047441500000000
1 49
     0.002634000000000    -0.000005000000000     0.000034000000000
    -0.000002000000000    -0.013633500000000    -0.010768000000000
     0.000007500000000    -0.004595500000000    -0.034900000000000
1 50
     0.002681000000000     0.000005000000000     0.000038500000000
    -0.000000500000000    -0.000173000000000    -0.024969500000000
     0.000004500000000    -0.009313000000000    -0.055637500000000
1 51
     0.002719000000000    -0.000010000000000     0.000036500000000
     0.000004500000000    -0.009146500000000     0.017608000000000
    -0.000000500000000     0.006342500000000    -0.031021500000000
1 52
     0.002630000000000    -0.000008000000000     0.000032000000000
     0.000000500000000     0.012678500000000     0.021356500000000
     0.000002500000000     0.007729000000000    -0.066615500000000
1 53
     0.002812500000000     0.000014500000000     0.000014000000000
     0.000000500000000     0.026115000000000    -0.074101500000000
     0.000008000000000    -0.017240500000000    -0.082934500000000
1 54
     0.002728000000000     0.000021000000000     0.000008000000000
     0.000001000000000     0.004596500000000     0.070151000000000
     0.000003500000000     0.026377000000000    -0.088734500000000
1 55
     0.002599000000000    -0.000001500000000     0.000009000000000
    -0.000002000000000    -0.039845000000000     0.014185000000000
     0.000002000000000    -0.005461500000000     0.003368000000000
1 56
     0.002814500000000    -0.000014500000000     0.000000500000000
     0.000001000000000     0.041880500000000    -0.016428000000000
     0.000003000000000     0.012028500000000    -0.119094500000000
1 57
     0.002736500000000     0.000011000000000     0.000013000000000
    -0.000001000000000    -0.013971000000000     0.081758000000000
     0.000008500000000     0.021685000000000    -0.027485000000000
1 58
     0.002703500000000     0.000018500000000     0.000015000000000
     0.000002000000000    -0.015635000000000    -0.049265500000000
     0.000001000000000    -0.028001000000000    -0.021902500000000
1 59
     0.003738500000000     0.000009000000000     0.000007000000000
    -0.000001500000000     0.076294000000000    -0.002933000000000
     0.000003000000000     0.030051000000000    -0.202710000000000
1 60
     0.002755500000000     0.000010000000000     0.000006000000000
    -0.000000500000000    -0.087824500000000     0.101805000000000
     0.000004500000000     0.044304000000000     0.048370500000000
1 61
     0.002965500000000    -0.000009500000000     0.000007500000000
    -0.000001500000000    -0.021192500000000    -0.144105500000000
    -0.000001500000000    -0.067692500000000    -0.005403500000000
1 62
     0.002767500000000     0.000005000000000     0.000021500000000
    -0.000001500000000    -0.082726000000000    -0.014589500000000
     0.000000500000000    -0.035917500000000     0.074639500000000
1 63
     0.001979000000000     0.000006500000000    -0.000005000000000
     0.000000500000000     0.043029000000000     0.245493500000000
    -0.000006000000000     0.073752000000000    -0.069350000000000
1 64
     0.002663500000000     0.000000500000000    -0.000003000000000
     0.000002000000000     0.077257000000000    -0.163852500000000
     0.000002500000000    -0.035321000000000    -0.153211500000000
1 65
    -0.002685500000000    -0.000029500000000     0.000058500000000
    -0.000008000000000    -0.024124000000000    -0.664059500000000
     0.000002500000000    -0.246839500000000    -0.318626500000000
1 66
    -0.005615000000000    -0.000014500000000    -0.000055500000000
     0.000058000000000     0.313874500000000     1.187962000000000
    -0.000013000000000     0.218246500000000    -0.326586500000000
1 67
     0.002754500000000     0.000050500000000    -0.000029500000000
     0.000004000000000    -0.244868500000000     0.099288500000000
    -0.000001000000000     0.041323000000000     0.296035500000000
1 68
     0.002677500000000    -0.000019500000000     0.000003000000000
    -0.000001000000000    -0.211523500000000    -0.348612500000000
     0.000002500000000    -0.168710000000000     0.324992000000000
1 69
     0.002798000000000     0.000017500000000     0.000009500000000
    -0.000000500000000    -0.191691500000000     0.299250500000000
     0.000004000000000     0.218622500000000     0.223902000000000
1 70
     0.008471000000000     0.000014000000000    -0.000016000000000
     0.000005000000000     0.368178000000000    -0.540008500000000
     0.000008500000000    -0.027438000000000    -0.759524000000000
1 71
     0.002713000000000    -0.000001000000000     0.000100500000000
    -0.000009500000000    -0.005288500000000    -0.001773500000000
     0.000027500000000     0.000501500000000     0.036376500000000
1 72
     0.002716500000000     0.000010000000000     0.000133500000000
    -0.000000500000000     0.003044000000000     0.003255500000000
    -0.000008500000000     0.005731000000000     0.032050000000000
1 73
     0.002725000000000    -0.000006000000000     0.000103000000000
    -0.000004000000000     0.003904500000000    -0.004694500000000
     0.000019500000000    -0.001483500000000     0.030414000000000
1 74
     0.002726000000000     0.000014500000000     0.000116500000000
     0.000021000000000    -0.002809500000000     0.002592000000000
     0.000000000000000     0.004673000000000     0.035641000000000
1 75
     0.002726000000000     0.000015500000000     0.000105000000000
     0.000026000000000     0.006373000000000    -0.000685000000000
     0.000009000000000     0.002651500000000     0.029458500000000
1 76
     0.002721000000000     0.000009500000000     0.000118500000000
     0.000004000000000    -0.001821500000000    -0.005696000000000
    -0.000008000000000    -0.002512500000000     0.033746000000000
1 77
     0.002726000000000    -0.000011000000000     0.000097000000000
     0.000014500000000    -0.005411500000000     0.015339000000000
    -0.000044000000000     0.010915500000000     0.068349000000000
1 78
     0.002692000000000    -0.000030500000000     0.000032000000000
    -0.000014000000000    -0.007503000000000    -0.017416000000000
    -0.000023000000000    -0.007976000000000     0.066838500000000
1 79
     0.002719000000000    -0.000030500000000     0.000030000000000
     0.000028500000000     0.014696500000000    -0.005427500000000
     0.000005000000000     0.001883500000000     0.046530000000000
1 80
     0.002726500000000    -0.000018000000000     0.000049500000000
    -0.000009000000000    -0.014487500000000    -0.000301000000000
     0.000021000000000     0.001026500000000     0.074456500000000
1 81
     0.002730000000000    -0.000029000000000     0.000093000000000
    -0.000001500000000     0.006176500000000    -0.017554500000000
     0.000001000000000    -0.007711000000000     0.053629500000000
1 82
     0.002707000000000    -0.000044500000000     0.000059500000000
    -0.000018500000000     0.009778000000000     0.012917000000000
    -0.000002000000000     0.011491000000000     0.053755500000000
1 83
     0.002725500000000    -0.000018500000000     0.000024500000000
    -0.000006500000000    -0.032540500000000     0.020295000000000
    -0.000018000000000     0.013046000000000     0.092233000000000
1 84
     0.002721000000000    -0.000023000000000     0.000037500000000
     0.000005500000000    -0.000869000000000    -0.042875000000000
    -0.000018500000000    -0.026700000000000     0.052435500000000
1 85
     0.002729000000000    -0.000037000000000     0.000004000000000
    -0.000013000000000     0.033224000000000     0.022660000000000
    -0.000000500000000     0.018672000000000     0.030806500000000
1 86
     0.002713000000000    -0.000034500000000     0.000021500000000
     0.000010500000000     0.003182000000000     0.046761500000000
    -0.000013500000000     0.030277500000000     0.066723500000000
1 87
     0.002701000000000    -0.000008000000000     0.000005500000000
     0.000008500000000     0.034461500000000    -0.026214500000000
    -0.000009500000000    -0.009949000000000     0.025670500000000
1 88
     0.002696500000000    -0.000019500000000    -0.000011000000000
     0.000002000000000    -0.033836500000000    -0.031853500000000
    -0.000021000000000    -0.015884500000000     0.083777000000000
1 89
     0.002721500000000     0.000007500000000     0.000000500000000
     0.000004500000000     0.081498000000000    -0.014439500000000
     0.000005500000000     0.000398000000000    -0.036307000000000
1 90
     0.002517500000000    -0.000004500000000     0.000008500000000
    -0.000000500000000    -0.076653000000000    -0.108232000000000
     0.000002000000000    -0.056609000000000     0.112565500000000
1 91
     0.002711000000000     0.000010000000000    -0.000014000000000
     0.000005000000000    -0.018026000000000     0.127004500000000
    -0.000011500000000     0.065052500000000     0.103142500000000
1 92
     0.002855000000000    -0.000001500000000    -0.000000500000000
     0.000002000000000    -0.088768500000000     0.031352500000000
    -0.000003000000000     0.005985000000000     0.163202500000000
1 93
     0.002815500000000     0.000015500000000    -0.000012000000000
    -0.000001000000000     0.047059000000000    -0.131101000000000
    -0.000014000000000    -0.057943500000000     0.015147500000000
1 94
     0.002724000000000    -0.000001000000000    -0.000000500000000
     0.000005000000000     0.056955000000000     0.082369500000000
     0.000005500000000     0.052844500000000     0.005592500000000
1 95
     0.002486000000000     0.000007500000000     0.000041500000000
     0.000006500000000    -0.117222500000000     0.303694000000000
    -0.000009500000000     0.147099000000000     0.247059000000000
1 96
     0.001150000000000    -0.000013000000000    -0.000000500000000
     0.000000500000000     0.006837000000000    -0.455870000000000
    -0.000000500000000    -0.180466500000000     0.094445500000000
1 97
     0.002774000000000     0.000013500000000     0.000034500000000
    -0.000004500000000     0.201913500000000     0.034497000000000
     0.000004000000000     0.029290000000000    -0.141098500000000
1 98
     0.003373500000000    -0.000000500000000     0.000046500000000
     0.000001500000000     0.105145000000000     0.224549500000000
     0.000005000000000     0.183151500000000    -0.030117500000000
1 99
     0.002713500000000     0.000003000000000     0.000019000000000
     0.000013000000000     0.158206500000000    -0.136771000000000
    -0.000003500000000    -0.098322500000000    -0.109942500000000
1 100
     0.004602500000000     0.000023500000000     0.000008500000000
    -0.000016000000000    -0.350338500000000     0.008306000000000
     0.000007500000000    -0.070108500000000     0.311710500000000
1 101
     0.002730500000000    -0.000002500000000    -0.000027500000000
     0.000010500000000    -0.000446500000000     0.000957500000000
     0.000010000000000     0.001679500000000     0.011176500000000
1 102
     0.002724000000000    -0.000016500000000    -0.000143500000000
    -0.000002000000000    -0.000175500000000     0.000230500000000
     0.000027000000000     0.001004000000000     0.011196000000000
1 103
     0.002713000000000    -0.000010500000000    -0.000092500000000
     0.000002000000000     0.000860500000000    -0.000440500000000
    -0.000005500000000     0.000853500000000     0.010721500000000
1 104
     0.002725000000000    -0.000020000000000    -0.000076000000000
    -0.000006000000000     0.001429500000000    -0.000290000000000
     0.000011500000000     0.001398500000000     0.010159500000000
1 105
     0.002716000000000    -0.000002000000000    -0.000136000000000
     0.000014000000000     0.001399500000000     0.000508000000000
     0.000007000000000     0.002215500000000     0.009927500000000
1 106
     0.002709000000000    -0.000023000000000    -0.000091000000000
    -0.000002500000000     0.000371000000000     0.001122000000000
    -0.000007000000000     0.002316000000000     0.010401500000000
2 1
     0.006091500000000     0.000063500000000     0.000017000000000
     0.000006000000000    -2.218744500000000     2.021332000000000
     0.000022500000000     2.175139000000000     0.032052500000000
2 2
    12.082769499999994     0.000298500000000    -0.003526500000000
     0.000447500000000    18.900016499999996     1.250952000000000
    -0.001999000000000     1.070119000000000    27.799872000000004
2 3
     0.000204500000000    -0.000031000000000     0.000243000000000
    -0.000026500000000     0.194899500000000     0.278920500000000
    -0.000041000000000     0.168524000000000    -0.272393000000000
2 4
     0.062180500000000     0.000018000000000     0.000245000000000
     0.000025000000000     1.943139500000000     0.537700000000000
     0.000037000000000     0.410434500000000    -1.851532000000000
2 5
     0.026580000000000    -0.000103000000000     0.000061000000000
    -0.000089500000000    -1.664190500000000    -2.764989000000000
    -0.000008500000000    -2.317854000000000    -0.493722500000000
2 6
    -0.002660500000000    -0.000090000000000    -0.000272000000000
    -0.000019500000000    -0.878516500000000     0.631147500000000
     0.000016000000000     0.343681000000000     1.923032000000000
2 7
     0.000007500000000     0.000112000000000     0.000996000000000
    -0.000000500000000     0.139201000000000    -0.100164000000000
     0.000019500000000    -0.058218500000000    -0.234325500000000
2 8
     0.006813000000000     0.000055500000000     0.000295500000000
    -0.000000500000000    -0.100044500000000    -0.700365500000000
    -0.000004000000000    -0.235084000000000    -0.081010000000000
2 9
     0.004396000000000     0.000014000000000     0.000076500000000
     0.000002000000000    -0.935569000000000    -0.216649000000000
     0.000011500000000    -0.504161500000000     0.598436500000000
2 10
     0.000151000000000    -0.000039500000000    -0.000394500000000
     0.000019000000000    -0.609405500000000     0.075682000000000
    -0.000003500000000     0.077382500000000     1.059952500000000
2 11
     0.000026500000000    -0.000188000000000    -0.000121500000000
     0.000036000000000    -0.144484000000000    -0.150662000000000
    -0.000023000000000    -0.103009000000000     0.135474000000000
2 12
     0.000135500000000    -0.000022000000000     0.000352000000000
    -0.000004000000000    -0.470182000000000    -0.033587000000000
     0.000000500000000    -0.014665000000000     0.342851000000000
2 13
     0.002135500000000    -0.000101500000000     0.000044500000000
    -0.000015500000000    -0.912707000000000     0.353993500000000
     0.000012500000000     0.315534000000000     0.562857000000000
2 14
     0.019217500000000    -0.000032000000000    -0.000234000000000
    -0.000012500000000    -1.310827000000000    -0.586969500000000
     0.000033500000000    -0.383069000000000     2.011942000000000
2 15
    -0.000027500000000     0.000287000000000     0.000284000000000
     0.000000500000000    -0.104454500000000     0.056055000000000
    -0.000037500000000     0.015666000000000     0.057342000000000
2 16
    -0.000374500000000     0.000116500000000     0.000292500000000
    -0.000023500000000    -0.042915000000000     0.488619000000000
     0.000043500000000     0.177169500000000     0.092713000000000
2 17
     0.057157500000000    -0.000088000000000    -0.000038000000000
     0.000016000000000     0.994690000000000    -0.315467500000000
    -0.000008500000000    -0.786381000000000    -1.025568000000000
2 18
     0.491037500000000     0.000185500000000     0.001693000000000
     0.000164000000000    -0.899267500000000    -0.835758000000000
     0.001215500000000    -0.981451000000000   -17.103739000000001
2 19
   -11.709902499999995    -0.000806000000000     0.000426500000000
    -0.000794000000000    -7.208459499999999     2.927183500000000
     0.000634500000000     3.076768500000000    -4.219550500000000
2 20
     0.098507000000000     0.000174000000000    -0.000119500000000
     0.000007500000000    -0.203640500000000    -1.335551000000000
    -0.000004000000000    -0.745831000000000     0.161687500000000
2 21
     0.000931000000000    -0.000586000000000    -0.000244000000000
    -0.000005000000000    -0.144354000000000    -0.323217000000000
     0.000004000000000    -0.082538500000000     0.127719000000000
2 22
     0.024302000000000     0.000018500000000     0.000345000000000
    -0.000001000000000     0.193120500000000    -1.144644000000000
    -0.000012000000000    -0.956421500000000    -1.046384000000000
2 23
    -1.061481500000000     0.000345500000000     0.000086500000000
     0.000229500000000    -7.785501999999998    -2.211314500000000
     0.000065500000000    -2.175963500000000    -2.503322500000000
2 24
     0.036465500000000     0.000063000000000    -0.000074500000000
     0.000006000000000    -1.635407500000000     0.817877000000000
     0.000022000000000     0.097503500000000     0.637835000000000
2 25
     0.000393000000000     0.000598500000000    -0.000085000000000
    -0.000003500000000    -0.287312500000000     0.001903000000000
    -0.000027500000000    -0.126384500000000     0.624422000000000
2 26
     0.003494000000000     0.000056000000000     0.000321500000000
     0.000005000000000     0.278261500000000    -0.485675000000000
    -0.000006000000000    -0.200948000000000    -0.808902000000000
2 27
    -0.043402000000000     0.000085500000000     0.000007000000000
     0.000011500000000     0.967204500000000    -0.018595000000000
     0.000016500000000     0.575764500000000    -0.908368000000000
2 28
     0.078754000000000     0.000070500000000     0.000220500000000
     0.000016500000000     0.688760500000000     1.000992500000000
    -0.000008000000000     0.561257000000000    -0.077629000000000
2 29
     0.001676000000000     0.000416500000000     0.000070000000000
    -0.000008500000000    -0.121088000000000     0.278407000000000
    -0.000012500000000     0.074198500000000     0.135558500000000
2 30
    -0.000063500000000     0.000042000000000     0.000422500000000
    -0.000011000000000     0.196952000000000    -0.117226000000000
    -0.000012500000000    -0.015428500000000    -1.021525000000000
2 31
    -0.001484000000000     0.000035500000000    -0.000085000000000
    -0.000017500000000     0.519273500000000    -0.157839000000000
    -0.000004500000000     0.215409000000000    -0.477677500000000
2 32
     0.002291000000000     0.000133000000000     0.000319000000000
     0.000009000000000     0.478411500000000     0.195201500000000
    -0.000005500000000     0.093210000000000    -0.247058500000000
2 33
    -0.001250000000000     0.000367500000000     0.000690000000000
    -0.000017500000000     0.233565000000000     0.242667500000000
     0.000023500000000     0.074364500000000    -0.061964500000000
2 34
     0.001004000000000    -0.000045500000000     0.000258500000000
     0.000000500000000     0.361881500000000     0.341271500000000
     0.000010500000000     0.094320500000000    -0.708528500000000
2 35
     0.001168500000000    -0.000125000000000    -0.000109000000000
     0.000018000000000     0.520749500000000     0.039200500000000
     0.000016000000000    -0.272579500000000    -0.487301500000000
2 36
    -0.000064000000000    -0.000221500000000     0.000170000000000
    -0.000001500000000     0.362049000000000    -0.126336000000000
    -0.000008000000000     0.040929500000000    -0.227386000000000
2 37
    -0.000064000000000    -0.000139000000000    -0.000117000000000
    -0.000000500000000     0.107867500000000     0.036570000000000
    -0.000009000000000     0.053888500000000    -0.202129000000000
2 38
     0.021927500000000    -0.000053000000000     0.000270500000000
     0.000015500000000     0.321973500000000     0.751328500000000
    -0.000007500000000     0.647137500000000    -1.195198000000000
2 39
     0.000106500000000    -0.000161500000000    -0.000122000000000
    -0.000000000000000     0.368042000000000    -0.479826500000000
     0.000000500000000    -0.333620000000000    -0.286698000000000
2 40
    -0.000066500000000    -0.000098500000000     0.000110500000000