nqpoint: 404    
npath: 4      
segment_nqpoint:
- 101
- 101
- 101
- 101
labels:
- [ 'A', 'Γ' ]
- [ 'Γ', 'L' ]
- [ 'L', 'M' ]
- [ 'M', 'Γ' ]
reciprocal_lattice:
- [   0.32322091,   0.18661218,  -0.00000000 ] # a*
- [   0.00000000,   0.37322436,   0.00000000 ] # b*
- [  -0.00000000,   0.00000000,   0.09872994 ] # c*
natom: 8      
lattice:
- [     3.093859233751109,     0.000000000000000,     0.000000003591422 ] # a
- [    -1.546929616875555,     2.679353488809399,    -0.000000001795711 ] # b
- [     0.000000012339482,     0.000000000000000,    10.128639420469941 ] # c
points:
- symbol: Si # 1
  coordinates: [  0.999979047922395,  0.000008322441019,  0.187895882543437 ]
  mass: 28.085500
- symbol: Si # 2
  coordinates: [  0.999970725481383,  0.999991677558981,  0.687895882543437 ]
  mass: 28.085500
- symbol: Si # 3
  coordinates: [  0.333313522770766,  0.666676818348137,  0.437846977004348 ]
  mass: 28.085500
- symbol: Si # 4
  coordinates: [  0.666636704422629,  0.333323181651863,  0.937846977004348 ]
  mass: 28.085500
- symbol: C # 5
  coordinates: [  0.999970883627874,  0.999991538563009,  0.000449294025770 ]
  mass: 12.010700
- symbol: C # 6
  coordinates: [  0.999979345064865,  0.000008461436991,  0.500449294025771 ]
  mass: 12.010700
- symbol: C # 7
  coordinates: [  0.333313271154836,  0.666676771599597,  0.249807846426449 ]
  mass: 12.010700
- symbol: C # 8
  coordinates: [  0.666636499555239,  0.333323228400403,  0.749807846426449 ]
  mass: 12.010700

phonon:
- q-position: [    0.0000000,    0.0000000,    0.5000000 ]
  distance:    0.0000000
  band:
  - # 1
    frequency:    3.3130486343
  - # 2
    frequency:    3.3130486369
  - # 3
    frequency:    3.3133506268
  - # 4
    frequency:    3.3133506295
  - # 5
    frequency:    6.2736043144
  - # 6
    frequency:    6.2736043171
  - # 7
    frequency:    7.2657244288
  - # 8
    frequency:    7.2657244298
  - # 9
    frequency:    7.2659245058
  - # 10
    frequency:    7.2659245068
  - # 11
    frequency:   15.9812337375
  - # 12
    frequency:   15.9812337378
  - # 13
    frequency:   22.5119644470
  - # 14
    frequency:   22.5119644472
  - # 15
    frequency:   22.5122648528
  - # 16
    frequency:   22.5122648530
  - # 17
    frequency:   23.1646778270
  - # 18
    frequency:   23.1646778280
  - # 19
    frequency:   23.1648983936
  - # 20
    frequency:   23.1648983945
  - # 21
    frequency:   25.2660808826
  - # 22
    frequency:   25.2660808850
  - # 23
    frequency:   27.6586402216
  - # 24
    frequency:   27.6586402232

- q-position: [    0.0000000,    0.0000000,    0.4950000 ]
  distance:    0.0004936
  band:
  - # 1
    frequency:    3.2830207281
  - # 2
    frequency:    3.2833220153
  - # 3
    frequency:    3.3429890673
  - # 4
    frequency:    3.3432917119
  - # 5
    frequency:    6.2133320595
  - # 6
    frequency:    6.3338025182
  - # 7
    frequency:    7.2564699690
  - # 8
    frequency:    7.2566701165
  - # 9
    frequency:    7.2748809969
  - # 10
    frequency:    7.2750809991
  - # 11
    frequency:   15.9489325196
  - # 12
    frequency:   16.0133109533
  - # 13
    frequency:   22.5100364612
  - # 14
    frequency:   22.5103373356
  - # 15
    frequency:   22.5139042521
  - # 16
    frequency:   22.5142041834
  - # 17
    frequency:   23.1620934533
  - # 18
    frequency:   23.1623146535
  - # 19
    frequency:   23.1672472900
  - # 20
    frequency:   23.1674672224
  - # 21
    frequency:   25.2521631578
  - # 22
    frequency:   25.2800364475
  - # 23
    frequency:   27.6523219064
  - # 24
    frequency:   27.6648891065

- q-position: [    0.0000000,    0.0000000,    0.4900000 ]
  distance:    0.0009873
  band:
  - # 1
    frequency:    3.2529059151
  - # 2
    frequency:    3.2532064434
  - # 3
    frequency:    3.3728414593
  - # 4
    frequency:    3.3731447033
  - # 5
    frequency:    6.1529864494
  - # 6
    frequency:    6.3939259674
  - # 7
    frequency:    7.2471174850
  - # 8
    frequency:    7.2473176988
  - # 9
    frequency:    7.2839398035
  - # 10
    frequency:    7.2841397264
  - # 11
    frequency:   15.9164087853
  - # 12
    frequency:   16.0451626595
  - # 13
    frequency:   22.5081204906
  - # 14
    frequency:   22.5084218277
  - # 15
    frequency:   22.5158556776
  - # 16
    frequency:   22.5161551285
  - # 17
    frequency:   23.1594945253
  - # 18
    frequency:   23.1597163584
  - # 19
    frequency:   23.1698014882
  - # 20
    frequency:   23.1700207859
  - # 21
    frequency:   25.2382848619
  - # 22
    frequency:   25.2940282772
  - # 23
    frequency:   27.6459341256
  - # 24
    frequency:   27.6710685984

- q-position: [    0.0000000,    0.0000000,    0.4850000 ]
  distance:    0.0014809
  band:
  - # 1
    frequency:    3.2227047716
  - # 2
    frequency:    3.2230044866
  - # 3
    frequency:    3.4026052574
  - # 4
    frequency:    3.4029090486
  - # 5
    frequency:    6.0925681838
  - # 6
    frequency:    6.4539739675
  - # 7
    frequency:    7.2376668465
  - # 8
    frequency:    7.2378671226
  - # 9
    frequency:    7.2929009822
  - # 10
    frequency:    7.2931008213
  - # 11
    frequency:   15.8836639996
  - # 12
    frequency:   16.0767873285
  - # 13
    frequency:   22.5062167296
  - # 14
    frequency:   22.5065185236
  - # 15
    frequency:   22.5178185223
  - # 16
    frequency:   22.5181174871
  - # 17
    frequency:   23.1568814075
  - # 18
    frequency:   23.1571038729
  - # 19
    frequency:   23.1723400739
  - # 20
    frequency:   23.1725587365
  - # 21
    frequency:   25.2244476114
  - # 22
    frequency:   25.3080548187
  - # 23
    frequency:   27.6394768552
  - # 24
    frequency:   27.6771787426

- q-position: [    0.0000000,    0.0000000,    0.4800000 ]
  distance:    0.0019746
  band:
  - # 1
    frequency:    3.1924178806
  - # 2
    frequency:    3.1927167274
  - # 3
    frequency:    3.4322799127
  - # 4
    frequency:    3.4325841995
  - # 5
    frequency:    6.0320779632
  - # 6
    frequency:    6.5139458223
  - # 7
    frequency:    7.2281179239
  - # 8
    frequency:    7.2283182583
  - # 9
    frequency:    7.3017646667
  - # 10
    frequency:    7.3019644174
  - # 11
    frequency:   15.8506996073
  - # 12
    frequency:   16.1081834108
  - # 13
    frequency:   22.5043253705
  - # 14
    frequency:   22.5046276153
  - # 15
    frequency:   22.5197925827
  - # 16
    frequency:   22.5200910555
  - # 17
    frequency:   23.1542544695
  - # 18
    frequency:   23.1544775664
  - # 19
    frequency:   23.1748627046
  - # 20
    frequency:   23.1750807317
  - # 21
    frequency:   25.2106530417
  - # 22
    frequency:   25.3221145391
  - # 23
    frequency:   27.6329500767
  - # 24
    frequency:   27.6832195909

- q-position: [    0.0000000,    0.0000000,    0.4750000 ]
  distance:    0.0024682
  band:
  - # 1
    frequency:    3.1620458320
  - # 2
    frequency:    3.1623437554
  - # 3
    frequency:    3.4618648828
  - # 4
    frequency:    3.4621696144
  - # 5
    frequency:    5.9715164890
  - # 6
    frequency:    6.5738408361
  - # 7
    frequency:    7.2184705886
  - # 8
    frequency:    7.2186709777
  - # 9
    frequency:    7.3105309910
  - # 10
    frequency:    7.3107306486
  - # 11
    frequency:   15.8175170331
  - # 12
    frequency:   16.1393493355
  - # 13
    frequency:   22.5024466034
  - # 14
    frequency:   22.5027492931
  - # 15
    frequency:   22.5217776523
  - # 16
    frequency:   22.5220756273
  - # 17
    frequency:   23.1516140860
  - # 18
    frequency:   23.1518378137
  - # 19
    frequency:   23.1773690428
  - # 20
    frequency:   23.1775864341
  - # 21
    frequency:   25.1969028093
  - # 22
    frequency:   25.3362059253
  - # 23
    frequency:   27.6263537787
  - # 24
    frequency:   27.6891912010

- q-position: [    0.0000000,    0.0000000,    0.4700000 ]
  distance:    0.0029619
  band:
  - # 1
    frequency:    3.1315892227
  - # 2
    frequency:    3.1318861670
  - # 3
    frequency:    3.4913596321
  - # 4
    frequency:    3.4916647582
  - # 5
    frequency:    5.9108844634
  - # 6
    frequency:    6.6336583143
  - # 7
    frequency:    7.2087247132
  - # 8
    frequency:    7.2089251533
  - # 9
    frequency:    7.3192000898
  - # 10
    frequency:    7.3193996495
  - # 11
    frequency:   15.7841176816
  - # 12
    frequency:   16.1702835098
  - # 13
    frequency:   22.5005806167
  - # 14
    frequency:   22.5008837454
  - # 15
    frequency:   22.5237735219
  - # 16
    frequency:   22.5240709933
  - # 17
    frequency:   23.1489606379
  - # 18
    frequency:   23.1491849955
  - # 19
    frequency:   23.1798587560
  - # 20
    frequency:   23.1800755112
  - # 21
    frequency:   25.1831985920
  - # 22
    frequency:   25.3503274832
  - # 23
    frequency:   27.6196879570
  - # 24
    frequency:   27.6950936367

- q-position: [    0.0000000,    0.0000000,    0.4650000 ]
  distance:    0.0034555
  band:
  - # 1
    frequency:    3.1010486569
  - # 2
    frequency:    3.1013445658
  - # 3
    frequency:    3.5207636314
  - # 4
    frequency:    3.5210691023
  - # 5
    frequency:    5.8501825897
  - # 6
    frequency:    6.6933975627
  - # 7
    frequency:    7.1988801716
  - # 8
    frequency:    7.1990806591
  - # 9
    frequency:    7.3277720981
  - # 10
    frequency:    7.3279715551
  - # 11
    frequency:   15.7505029378
  - # 12
    frequency:   16.2009843193
  - # 13
    frequency:   22.4987275973
  - # 14
    frequency:   22.4990311590
  - # 15
    frequency:   22.5257799789
  - # 16
    frequency:   22.5260769411
  - # 17
    frequency:   23.1462945118
  - # 18
    frequency:   23.1465194985
  - # 19
    frequency:   23.1823315165
  - # 20
    frequency:   23.1825476357
  - # 21
    frequency:   25.1695420896
  - # 22
    frequency:   25.3644777379
  - # 23
    frequency:   27.6129526150
  - # 24
    frequency:   27.7009269678

- q-position: [    0.0000000,    0.0000000,    0.4600000 ]
  distance:    0.0039492
  band:
  - # 1
    frequency:    3.0704247455
  - # 2
    frequency:    3.0707195623
  - # 3
    frequency:    3.5500763581
  - # 4
    frequency:    3.5503821248
  - # 5
    frequency:    5.7894115719
  - # 6
    frequency:    6.7530578881
  - # 7
    frequency:    7.1889368385
  - # 8
    frequency:    7.1891373703
  - # 9
    frequency:    7.3362471516
  - # 10
    frequency:    7.3364465009
  - # 11
    frequency:   15.7166741675
  - # 12
    frequency:   16.2314501270
  - # 13
    frequency:   22.4968877302
  - # 14
    frequency:   22.4971917189
  - # 15
    frequency:   22.5277968079
  - # 16
    frequency:   22.5280932551
  - # 17
    frequency:   23.1436161004
  - # 18
    frequency:   23.1438417152
  - # 19
    frequency:   23.1847870018
  - # 20
    frequency:   23.1850024848
  - # 21
    frequency:   25.1559350234
  - # 22
    frequency:   25.3786552328
  - # 23
    frequency:   27.6061477635
  - # 24
    frequency:   27.7066912697

- q-position: [    0.0000000,    0.0000000,    0.4550000 ]
  distance:    0.0044428
  band:
  - # 1
    frequency:    3.0397181067
  - # 2
    frequency:    3.0400117744
  - # 3
    frequency:    3.5792972958
  - # 4
    frequency:    3.5796033098
  - # 5
    frequency:    5.7285721150
  - # 6
    frequency:    6.8126385978
  - # 7
    frequency:    7.1788945904
  - # 8
    frequency:    7.1790951634
  - # 9
    frequency:    7.3446253860
  - # 10
    frequency:    7.3448246226
  - # 11
    frequency:   15.6826327171
  - # 12
    frequency:   16.2616792739
  - # 13
    frequency:   22.4950611989
  - # 14
    frequency:   22.4953656086
  - # 15
    frequency:   22.5298237897
  - # 16
    frequency:   22.5301197164
  - # 17
    frequency:   23.1409258024
  - # 18
    frequency:   23.1411520445
  - # 19
    frequency:   23.1872248938
  - # 20
    frequency:   23.1874397407
  - # 21
    frequency:   25.1423791368
  - # 22
    frequency:   25.3928585301
  - # 23
    frequency:   27.5992734211
  - # 24
    frequency:   27.7123866233

- q-position: [    0.0000000,    0.0000000,    0.4500000 ]
  distance:    0.0049365
  band:
  - # 1
    frequency:    3.0089293658
  - # 2
    frequency:    3.0092218269
  - # 3
    frequency:    3.6084259345
  - # 4
    frequency:    3.6087321481
  - # 5
    frequency:    5.6676649249
  - # 6
    frequency:    6.8721389998
  - # 7
    frequency:    7.1687533050
  - # 8
    frequency:    7.1689539162
  - # 9
    frequency:    7.3529069376
  - # 10
    frequency:    7.3531060564
  - # 11
    frequency:   15.6483799145
  - # 12
    frequency:   16.2916700788
  - # 13
    frequency:   22.4932481854
  - # 14
    frequency:   22.4935530101
  - # 15
    frequency:   22.5318607016
  - # 16
    frequency:   22.5321561020
  - # 17
    frequency:   23.1382240231
  - # 18
    frequency:   23.1384508915
  - # 19
    frequency:   23.1896448793
  - # 20
    frequency:   23.1898590902
  - # 21
    frequency:   25.1288761953
  - # 22
    frequency:   25.4070862093
  - # 23
    frequency:   27.5923296144
  - # 24
    frequency:   27.7180131151

- q-position: [    0.0000000,    0.0000000,    0.4450000 ]
  distance:    0.0054301
  band:
  - # 1
    frequency:    2.9780591551
  - # 2
    frequency:    2.9783503517
  - # 3
    frequency:    3.6374617703
  - # 4
    frequency:    3.6377681365
  - # 5
    frequency:    5.6066907084
  - # 6
    frequency:    6.9315584029
  - # 7
    frequency:    7.1585128616
  - # 8
    frequency:    7.1587135083
  - # 9
    frequency:    7.3610919428
  - # 10
    frequency:    7.3612909386
  - # 11
    frequency:   15.6139170690
  - # 12
    frequency:   16.3214208377
  - # 13
    frequency:   22.4914488706
  - # 14
    frequency:   22.4917541043
  - # 15
    frequency:   22.5339073170
  - # 16
    frequency:   22.5342021856
  - # 17
    frequency:   23.1355111740
  - # 18
    frequency:   23.1357386678
  - # 19
    frequency:   23.1920466498
  - # 20
    frequency:   23.1922602251
  - # 21
    frequency:   25.1154279868
  - # 22
    frequency:   25.4213368679
  - # 23
    frequency:   27.5853163782
  - # 24
    frequency:   27.7235708367

- q-position: [    0.0000000,    0.0000000,    0.4400000 ]
  distance:    0.0059238
  band:
  - # 1
    frequency:    2.9471081142
  - # 2
    frequency:    2.9473979881
  - # 3
    frequency:    3.6664043055
  - # 4
    frequency:    3.6667107780
  - # 5
    frequency:    5.5456501735
  - # 6
    frequency:    6.9908961163
  - # 7
    frequency:    7.1481731411
  - # 8
    frequency:    7.1483738208
  - # 9
    frequency:    7.3691805383
  - # 10
    frequency:    7.3693794058
  - # 11
    frequency:   15.5792454719
  - # 12
    frequency:   16.3509298243
  - # 13
    frequency:   22.4896634336
  - # 14
    frequency:   22.4899690704
  - # 15
    frequency:   22.5359634051
  - # 16
    frequency:   22.5362577364
  - # 17
    frequency:   23.1327876735
  - # 18
    frequency:   23.1330157916
  - # 19
    frequency:   23.1944299014
  - # 20
    frequency:   23.1946428413
  - # 21
    frequency:   25.1020363215
  - # 22
    frequency:   25.4356091203
  - # 23
    frequency:   27.5782337555
  - # 24
    frequency:   27.7290598849

- q-position: [    0.0000000,    0.0000000,    0.4350000 ]
  distance:    0.0064174
  band:
  - # 1
    frequency:    2.9160768897
  - # 2
    frequency:    2.9163653823
  - # 3
    frequency:    3.6952530482
  - # 4
    frequency:    3.6955595813
  - # 5
    frequency:    5.4845440287
  - # 6
    frequency:    7.0501514499
  - # 7
    frequency:    7.1377340262
  - # 8
    frequency:    7.1379347366
  - # 9
    frequency:    7.3771728608
  - # 10
    frequency:    7.3773715947
  - # 11
    frequency:   15.5443663966
  - # 12
    frequency:   16.3801952893
  - # 13
    frequency:   22.4878920527
  - # 14
    frequency:   22.4881980865
  - # 15
    frequency:   22.5380287309
  - # 16
    frequency:   22.5383225192
  - # 17
    frequency:   23.1300539465
  - # 18
    frequency:   23.1302826881
  - # 19
    frequency:   23.1967943346
  - # 20
    frequency:   23.1970066397
  - # 21
    frequency:   25.0887030319
  - # 22
    frequency:   25.4499015976
  - # 23
    frequency:   27.5710817978
  - # 24
    frequency:   27.7344803614

- q-position: [    0.0000000,    0.0000000,    0.4300000 ]
  distance:    0.0069111
  band:
  - # 1
    frequency:    2.8849661355
  - # 2
    frequency:    2.8852531878
  - # 3
    frequency:    3.7240075127
  - # 4
    frequency:    3.7243140615
  - # 5
    frequency:    5.4233729839
  - # 6
    frequency:    7.1093237137
  - # 7
    frequency:    7.1271954012
  - # 8
    frequency:    7.1273961403
  - # 9
    frequency:    7.3850690475
  - # 10
    frequency:    7.3852676420
  - # 11
    frequency:   15.5092810988
  - # 12
    frequency:   16.4092154610
  - # 13
    frequency:   22.4861349047
  - # 14
    frequency:   22.4864413295
  - # 15
    frequency:   22.5401030545
  - # 16
    frequency:   22.5403962946
  - # 17
    frequency:   23.1273104252
  - # 18
    frequency:   23.1275397892
  - # 19
    frequency:   23.1991396544
  - # 20
    frequency:   23.1993513253
  - # 21
    frequency:   25.0754299731
  - # 22
    frequency:   25.4642129473
  - # 23
    frequency:   27.5638605653
  - # 24
    frequency:   27.7398323727

- q-position: [    0.0000000,    0.0000000,    0.4250000 ]
  distance:    0.0074047
  band:
  - # 1
    frequency:    2.8537765127
  - # 2
    frequency:    2.8540620655
  - # 3
    frequency:    3.7526672188
  - # 4
    frequency:    3.7529737392
  - # 5
    frequency:    5.3621377496
  - # 6
    frequency:    7.1165571528
  - # 7
    frequency:    7.1167579186
  - # 8
    frequency:    7.1684122185
  - # 9
    frequency:    7.3928692357
  - # 10
    frequency:    7.3930676845
  - # 11
    frequency:   15.4739908172
  - # 12
    frequency:   16.4379885448
  - # 13
    frequency:   22.4843921654
  - # 14
    frequency:   22.4846989752
  - # 15
    frequency:   22.5421861316
  - # 16
    frequency:   22.5424788178
  - # 17
    frequency:   23.1245575487
  - # 18
    frequency:   23.1247875342
  - # 19
    frequency:   23.2014655706
  - # 20
    frequency:   23.2016766080
  - # 21
    frequency:   25.0622190229
  - # 22
    frequency:   25.4785418327
  - # 23
    frequency:   27.5565701272
  - # 24
    frequency:   27.7451160302

- q-position: [    0.0000000,    0.0000000,    0.4200000 ]
  distance:    0.0078984
  band:
  - # 1
    frequency:    2.8225086895
  - # 2
    frequency:    2.8227926832
  - # 3
    frequency:    3.7812316920
  - # 4
    frequency:    3.7815381405
  - # 5
    frequency:    5.3008390375
  - # 6
    frequency:    7.1058191693
  - # 7
    frequency:    7.1060199604
  - # 8
    frequency:    7.2274162744
  - # 9
    frequency:    7.4005735632
  - # 10
    frequency:    7.4007718591
  - # 11
    frequency:   15.4384967737
  - # 12
    frequency:   16.4665127236
  - # 13
    frequency:   22.4826640093
  - # 14
    frequency:   22.4829711982
  - # 15
    frequency:   22.5442777121
  - # 16
    frequency:   22.5445698393
  - # 17
    frequency:   23.1217957639
  - # 18
    frequency:   23.1220263698
  - # 19
    frequency:   23.2037717970
  - # 20
    frequency:   23.2039822017
  - # 21
    frequency:   25.0490720813
  - # 22
    frequency:   25.4928869326
  - # 23
    frequency:   27.5492105617
  - # 24
    frequency:   27.7503314494

- q-position: [    0.0000000,    0.0000000,    0.4150000 ]
  distance:    0.0083920
  band:
  - # 1
    frequency:    2.7911633412
  - # 2
    frequency:    2.7914457161
  - # 3
    frequency:    3.8097004634
  - # 4
    frequency:    3.8100067974
  - # 5
    frequency:    5.2394775600
  - # 6
    frequency:    7.0949813416
  - # 7
    frequency:    7.0951821565
  - # 8
    frequency:    7.2863351906
  - # 9
    frequency:    7.4081821698
  - # 10
    frequency:    7.4083803024
  - # 11
    frequency:   15.4028001735
  - # 12
    frequency:   16.4947861572
  - # 13
    frequency:   22.4809506101
  - # 14
    frequency:   22.4812581721
  - # 15
    frequency:   22.5463775410
  - # 16
    frequency:   22.5466691038
  - # 17
    frequency:   23.1190255249
  - # 18
    frequency:   23.1192567503
  - # 19
    frequency:   23.2060580518
  - # 20
    frequency:   23.2062678248
  - # 21
    frequency:   25.0359910713
  - # 22
    frequency:   25.5072469407
  - # 23
    frequency:   27.5417819564
  - # 24
    frequency:   27.7554787505

- q-position: [    0.0000000,    0.0000000,    0.4100000 ]
  distance:    0.0088857
  band:
  - # 1
    frequency:    2.7597411507
  - # 2
    frequency:    2.7600218465
  - # 3
    frequency:    3.8380730695
  - # 4
    frequency:    3.8383792470
  - # 5
    frequency:    5.1780540309
  - # 6
    frequency:    7.0840435627
  - # 7
    frequency:    7.0842444002
  - # 8
    frequency:    7.3451682675
  - # 9
    frequency:    7.4156952037
  - # 10
    frequency:    7.4158931511
  - # 11
    frequency:   15.3669022058
  - # 12
    frequency:   16.5228069829
  - # 13
    frequency:   22.4792521403
  - # 14
    frequency:   22.4795600693
  - # 15
    frequency:   22.5484853573
  - # 16
    frequency:   22.5487763502
  - # 17
    frequency:   23.1162472939
  - # 18
    frequency:   23.1164791379
  - # 19
    frequency:   23.2083240578
  - # 20
    frequency:   23.2085332002
  - # 21
    frequency:   25.0229779380
  - # 22
    frequency:   25.5216205652
  - # 23
    frequency:   27.5342844084
  - # 24
    frequency:   27.7605580579

- q-position: [    0.0000000,    0.0000000,    0.4050000 ]
  distance:    0.0093793
  band:
  - # 1
    frequency:    2.7282428075
  - # 2
    frequency:    2.7285217640
  - # 3
    frequency:    3.8663490519
  - # 4
    frequency:    3.8666550318
  - # 5
    frequency:    5.1165691645
  - # 6
    frequency:    7.0730057282
  - # 7
    frequency:    7.0732065875
  - # 8
    frequency:    7.4039146800
  - # 9
    frequency:    7.4231129393
  - # 10
    frequency:    7.4233105416
  - # 11
    frequency:   15.3308040438
  - # 12
    frequency:   16.5505733155
  - # 13
    frequency:   22.4775687713
  - # 14
    frequency:   22.4778770615
  - # 15
    frequency:   22.5506008937
  - # 16
    frequency:   22.5508913117
  - # 17
    frequency:   23.1134615413
  - # 18
    frequency:   23.1136940028
  - # 19
    frequency:   23.2105695418
  - # 20
    frequency:   23.2107780547
  - # 21
    frequency:   25.0100346491
  - # 22
    frequency:   25.5360065283
  - # 23
    frequency:   27.5267180246
  - # 24
    frequency:   27.7655694999

- q-position: [    0.0000000,    0.0000000,    0.4000000 ]
  distance:    0.0098730
  band:
  - # 1
    frequency:    2.6966690088
  - # 2
    frequency:    2.6969461654
  - # 3
    frequency:    3.8945279573
  - # 4
    frequency:    3.8948336992
  - # 5
    frequency:    5.0550236764
  - # 6
    frequency:    7.0618677362
  - # 7
    frequency:    7.0620686167
  - # 8
    frequency:    7.4304347698
  - # 9
    frequency:    7.4306326101
  - # 10
    frequency:    7.4625744841
  - # 11
    frequency:   15.2945068455
  - # 12
    frequency:   16.5780832469
  - # 13
    frequency:   22.4759006737
  - # 14
    frequency:   22.4762093191
  - # 15
    frequency:   22.5527238766
  - # 16
    frequency:   22.5530137144
  - # 17
    frequency:   23.1106687456
  - # 18
    frequency:   23.1109018238
  - # 19
    frequency:   23.2127942348
  - # 20
    frequency:   23.2130021197
  - # 21
    frequency:   24.9971631947
  - # 22
    frequency:   25.5504035658
  - # 23
    frequency:   27.5190829222
  - # 24
    frequency:   27.7705132087

- q-position: [    0.0000000,    0.0000000,    0.3950000 ]
  distance:    0.0103666
  band:
  - # 1
    frequency:    2.6650204587
  - # 2
    frequency:    2.6652957545
  - # 3
    frequency:    3.9226093373
  - # 4
    frequency:    3.9229148017
  - # 5
    frequency:    4.9934182829
  - # 6
    frequency:    7.0506294877
  - # 7
    frequency:    7.0508303892
  - # 8
    frequency:    7.4376619158
  - # 9
    frequency:    7.4378594926
  - # 10
    frequency:    7.5211459082
  - # 11
    frequency:   15.2580117535
  - # 12
    frequency:   16.6053348470
  - # 13
    frequency:   22.4742480171
  - # 14
    frequency:   22.4745570118
  - # 15
    frequency:   22.5548540256
  - # 16
    frequency:   22.5551432782
  - # 17
    frequency:   23.1078693941
  - # 18
    frequency:   23.1081030881
  - # 19
    frequency:   23.2149978722
  - # 20
    frequency:   23.2152051305
  - # 21
    frequency:   24.9843655870
  - # 22
    frequency:   25.5648104263
  - # 23
    frequency:   27.5113792283
  - # 24
    frequency:   27.7753893205

- q-position: [    0.0000000,    0.0000000,    0.3900000 ]
  distance:    0.0108603
  band:
  - # 1
    frequency:    2.6332978686
  - # 2
    frequency:    2.6335712425
  - # 3
    frequency:    3.9505927483
  - # 4
    frequency:    3.9508978964
  - # 5
    frequency:    4.9317537016
  - # 6
    frequency:    7.0392908868
  - # 7
    frequency:    7.0394918091
  - # 8
    frequency:    7.4447939453
  - # 9
    frequency:    7.4449913248
  - # 10
    frequency:    7.5796288335
  - # 11
    frequency:   15.2213198958
  - # 12
    frequency:   16.6323261631
  - # 13
    frequency:   22.4726109701
  - # 14
    frequency:   22.4729203082
  - # 15
    frequency:   22.5569910530
  - # 16
    frequency:   22.5572797152
  - # 17
    frequency:   23.1050639831
  - # 18
    frequency:   23.1052982921
  - # 19
    frequency:   23.2171801933
  - # 20
    frequency:   23.2173868269
  - # 21
    frequency:   24.9716438604
  - # 22
    frequency:   25.5792258709
  - # 23
    frequency:   27.5036070810
  - # 24
    frequency:   27.7801979749

- q-position: [    0.0000000,    0.0000000,    0.3850000 ]
  distance:    0.0113539
  band:
  - # 1
    frequency:    2.6015019568
  - # 2
    frequency:    2.6017733477
  - # 3
    frequency:    3.9784777511
  - # 4
    frequency:    3.9787825451
  - # 5
    frequency:    4.8700306509
  - # 6
    frequency:    7.0278518405
  - # 7
    frequency:    7.0280527839
  - # 8
    frequency:    7.4518310521
  - # 9
    frequency:    7.4520282420
  - # 10
    frequency:    7.6380225147
  - # 11
    frequency:   15.1844323859
  - # 12
    frequency:   16.6590552205
  - # 13
    frequency:   22.4709897005
  - # 14
    frequency:   22.4712993761
  - # 15
    frequency:   22.5591346635
  - # 16
    frequency:   22.5594227303
  - # 17
    frequency:   23.1022530181
  - # 18
    frequency:   23.1024879412
  - # 19
    frequency:   23.2193409419
  - # 20
    frequency:   23.2195469523
  - # 21
    frequency:   24.9590000711
  - # 22
    frequency:   25.5936486727
  - # 23
    frequency:   27.4957666290
  - # 24
    frequency:   27.7849393150

- q-position: [    0.0000000,    0.0000000,    0.3800000 ]
  distance:    0.0118476
  band:
  - # 1
    frequency:    2.5696334491
  - # 2
    frequency:    2.5699027957
  - # 3
    frequency:    4.0062639109
  - # 4
    frequency:    4.0065683136
  - # 5
    frequency:    4.8082498501
  - # 6
    frequency:    7.0163122593
  - # 7
    frequency:    7.0165132243
  - # 8
    frequency:    7.4587733790
  - # 9
    frequency:    7.4589703790
  - # 10
    frequency:    7.6963262578
  - # 11
    frequency:   15.1473503235
  - # 12
    frequency:   16.6855200228
  - # 13
    frequency:   22.4693843751
  - # 14
    frequency:   22.4696943823
  - # 15
    frequency:   22.5612845537
  - # 16
    frequency:   22.5615720200
  - # 17
    frequency:   23.0994370142
  - # 18
    frequency:   23.0996725507
  - # 19
    frequency:   23.2214798655
  - # 20
    frequency:   23.2216852548
  - # 21
    frequency:   24.9464362970
  - # 22
    frequency:   25.6080776161
  - # 23
    frequency:   27.4878580324
  - # 24
    frequency:   27.7896134873

- q-position: [    0.0000000,    0.0000000,    0.3750000 ]
  distance:    0.0123412
  band:
  - # 1
    frequency:    2.5376930782
  - # 2
    frequency:    2.5379603188
  - # 3
    frequency:    4.0339507969
  - # 4
    frequency:    4.0342547721
  - # 5
    frequency:    4.7464120196
  - # 6
    frequency:    7.0046720573
  - # 7
    frequency:    7.0048730446
  - # 8
    frequency:    7.4656210625
  - # 9
    frequency:    7.4658178704
  - # 10
    frequency:    7.7545393738
  - # 11
    frequency:   15.1100747945
  - # 12
    frequency:   16.7117185518
  - # 13
    frequency:   22.4677951598
  - # 14
    frequency:   22.4681054927
  - # 15
    frequency:   22.5634404116
  - # 16
    frequency:   22.5637272726
  - # 17
    frequency:   23.0966164965
  - # 18
    frequency:   23.0968526456
  - # 19
    frequency:   23.2235967158
  - # 20
    frequency:   23.2238014860
  - # 21
    frequency:   24.9339546372
  - # 22
    frequency:   25.6225114960
  - # 23
    frequency:   27.4798814628
  - # 24
    frequency:   27.7942206414

- q-position: [    0.0000000,    0.0000000,    0.3700000 ]
  distance:    0.0128349
  band:
  - # 1
    frequency:    2.5056815839
  - # 2
    frequency:    2.5059466570
  - # 3
    frequency:    4.0615379823
  - # 4
    frequency:    4.0618414945
  - # 5
    frequency:    4.6845178807
  - # 6
    frequency:    6.9929311521
  - # 7
    frequency:    6.9931321630
  - # 8
    frequency:    7.4723742376
  - # 9
    frequency:    7.4725708501
  - # 10
    frequency:    7.8126611755
  - # 11
    frequency:   15.0726068715
  - # 12
    frequency:   16.7376487678
  - # 13
    frequency:   22.4662222196
  - # 14
    frequency:   22.4665328724
  - # 15
    frequency:   22.5656019164
  - # 16
    frequency:   22.5658881672
  - # 17
    frequency:   23.0937920003
  - # 18
    frequency:   23.0940287614
  - # 19
    frequency:   23.2256912485
  - # 20
    frequency:   23.2258954019
  - # 21
    frequency:   24.9215572123
  - # 22
    frequency:   25.6369491176
  - # 23
    frequency:   27.4718371037
  - # 24
    frequency:   27.7987609298

- q-position: [    0.0000000,    0.0000000,    0.3650000 ]
  distance:    0.0133285
  band:
  - # 1
    frequency:    2.4735997132
  - # 2
    frequency:    2.4738625569
  - # 3
    frequency:    4.0890250438
  - # 4
    frequency:    4.0893280586
  - # 5
    frequency:    4.6225681558
  - # 6