# epsilon and Z* of atoms 1 3 5 7
   7.03988700    0.00000000    0.00000000    0.00000000    7.05540200    0.00000000   -0.00000000    0.00000000    7.36438700 
   2.66861000   -0.00000000    0.00000000    0.00000000    2.66962250   -0.00279000   -0.00000000   -0.00052000    2.90012000 
   2.66103000    0.00000000   -0.00000000   -0.00000000    2.66096250    0.00041000    0.00000000    0.00056000    2.62266000 
  -2.63960000    0.00000000   -0.00000000    0.00000000   -2.63935750   -0.00059000    0.00000000    0.00018000   -2.80237000 
  -2.69004000    0.00000000   -0.00000000    0.00000000   -2.69122750   -0.00200000    0.00000000    0.00009000   -2.72041000 
