144  
16   

1    
 -0.0050000100817392   0.0086602482171417  -0.0000000000058041
   0.1225715500   -0.2171241400    0.0020314300
  -0.0155013500   -0.0111557600    0.0097026800
  -0.0104421400   -0.0082786500    0.0077033700
  -0.0155404400    0.0210728500    0.0017389700
   0.0173313500    0.0078081500   -0.0022549600
  -0.0026343500    0.0045000600    0.0037057400
  -0.0103662800    0.0237566700    0.0057266700
  -0.0026255500    0.0045054800    0.0037188300
   0.0122688800    0.0049290900   -0.0002674300
   0.0000209900   -0.0000955900    0.0037179400
   0.0000020000   -0.0000959900    0.0036597100
  -0.0000206000   -0.0001094300    0.0036689400
   0.0000030900   -0.0000378300    0.0037310300
   0.0000293700   -0.0000792600    0.0037809600
  -0.0000270900   -0.0000098000    0.0037229400
  -0.0000239800   -0.0000493800    0.0037110800
  -0.0000258100   -0.0000112600    0.0037227000
   0.0000551800   -0.0000661900    0.0037736800
   0.0001593100   -0.0005032300    0.0055922500
  -0.0008593700   -0.0007499000    0.0059512400
   0.0005400400   -0.0008716800    0.0037195100
   0.0004028100   -0.0003489500    0.0018548300
  -0.0003021300    0.0005921100    0.0037204000
  -0.0001354300    0.0007948100    0.0040737400
  -0.0005112600    0.0009589300    0.0037157800
   0.0011190000    0.0004095300    0.0015014900
  -0.0005584100    0.0005520900    0.0033639800
  -0.0005599500   -0.0009173300    0.0031930200
  -0.0001401400   -0.0003293700    0.0033667200
   0.0005411600   -0.0008757800    0.0037213600
   0.0011246200    0.0000635400    0.0042467900
  -0.0002988200    0.0005899800    0.0037212100
  -0.0008603100    0.0003815900    0.0038964500
  -0.0005151200    0.0009598400    0.0037348000
   0.0004059600   -0.0000034300    0.0040751800
   0.0001607500    0.0009667400    0.0035513300
  -0.0019176400   -0.0013446600    0.0085757300
  -0.0007248000   -0.0015836100    0.0252351500
   0.0020541800   -0.0036308400    0.0064288700
   0.0020458700    0.0009524300    0.0042988100
  -0.0019077600    0.0032328700    0.0064195800
  -0.0001380400    0.0022147500    0.0082440800
  -0.0007077700    0.0011773000    0.0063806100
   0.0016385200   -0.0001945000   -0.0124067700
  -0.0019070000    0.0011860200    0.0045849300
   0.0000712200   -0.0001968800    0.0065981000
  -0.0001408100   -0.0000582700    0.0064477600
   0.0000661200   -0.0001938500    0.0064253700
   0.0000660700   -0.0001974800    0.0062497000
   0.0000969700   -0.0002425500    0.0064263900
  -0.0001655500   -0.0000921600    0.0063874300
  -0.0001425600    0.0001653500    0.0064238600
   0.0000554700    0.0000530700    0.0064002400
   0.0000959100    0.0000558100    0.0064625800
  -0.0001659400    0.0001333600    0.0063078900
   0.0000253000    0.0000230200    0.0064201000
   0.0001486700    0.0000803100    0.0058791000
   0.0001486200   -0.0001838700    0.0064247300
  -0.0000868400    0.0000564500    0.0067220100
  -0.0000855400   -0.0000522600    0.0069683700
   0.0000283300    0.0002527000    0.0065353100
   0.0000526200    0.0001435400    0.0061270000
  -0.0000866600    0.0002277400    0.0064227100
  -0.0002370500   -0.0011429400   -0.0050720800
   0.0011047000   -0.0019292400    0.0064507900
  -0.0020390100   -0.0007636400    0.0061259500
  -0.0020519800    0.0036051900    0.0064217800
   0.0002867800    0.0021916400    0.0047392400
   0.0017366800    0.0014325200    0.0067264900
   0.0011151100   -0.0002672400    0.0178968900
  -0.0019571700    0.0008946600    0.0081062000
   0.0002785400   -0.0004053600    0.0064256600
   0.0023983900   -0.0021033000    0.0000512300
  -0.0027071000   -0.0007654300   -0.0003027400
   0.0004621900   -0.0007363800   -0.0033317700
   0.0006759000   -0.0030910200   -0.0067059500
   0.0006131100   -0.0010106200   -0.0033376300
  -0.0013084600   -0.0003526200   -0.0036928700
  -0.0136893400    0.0238573900   -0.0031629900
   0.0020676000    0.0019815400   -0.0063531400
   0.0009919400    0.0010008700   -0.0029857700
   0.0000736100    0.0001149200   -0.0032680400
   0.0000153800    0.0001388800   -0.0034900200
  -0.0001003400    0.0002317400   -0.0033390300
  -0.0000901200    0.0000246800   -0.0034102900
   0.0000611000   -0.0000398900   -0.0033387500
   0.0000258500   -0.0000262900   -0.0035599200
   0.0000024700    0.0000488700   -0.0033392100
  -0.0000742700    0.0000860200   -0.0031880600
   0.0000632600   -0.0000091100   -0.0031162300
  -0.0013860700    0.0023455200   -0.0033304100
   0.0011897700    0.0016349500    0.0019866300
   0.0006058600    0.0003698700   -0.0021280400
   0.0019910700   -0.0009974200   -0.0074837800
  -0.0020552000   -0.0002549100   -0.0086917700
  -0.0001242900    0.0001512400   -0.0033478800
  -0.0001971900   -0.0022589100    0.0007904200
   0.0006750300   -0.0012323500   -0.0033387400
  -0.0006758100   -0.0003869400   -0.0045336000
   0.0000492500   -0.0001595600   -0.0033385500
  -0.0000638200   -0.0000238800   -0.0034433300
  -0.0000742500   -0.0003097100   -0.0036218200
   0.0001745100    0.0002021300   -0.0035179900
  -0.0000035100    0.0000204200   -0.0032341300
  -0.0001414300    0.0001841300   -0.0033366700
  -0.0003187500   -0.0000859500   -0.0031569100
   0.0000923800   -0.0002188600   -0.0033361300
   0.0002448700   -0.0001199100   -0.0030528500
   0.0046573900   -0.0008481100   -0.0068578000
  -0.0131608100    0.0793504100    0.0135843400
  -0.0016749100    0.0027758600   -0.0067962000
  -0.0016467600   -0.0044840000   -0.0067535700
   0.0030572900   -0.0053842200   -0.0068113200
  -0.0024506600   -0.0021951600   -0.0055233500
  -0.0131350600    0.0230847300   -0.0068213800
  -0.0586314000    0.0493050500   -0.0256306700
   0.0030646200    0.0010050200   -0.0080972000
  -0.0000160900   -0.0000372600   -0.0068498800
   0.0000435100   -0.0000797200   -0.0068241300
  -0.0000220700   -0.0000305200   -0.0068071700
  -0.0000247200   -0.0000386400   -0.0067646100
  -0.0000274400   -0.0000242400   -0.0068061000
   0.0000604800   -0.0000717600   -0.0067684900
   0.0000430800   -0.0001502000   -0.0068090200
  -0.0000174100   -0.0001151800   -0.0067916900
  -0.0000243400   -0.0001239800   -0.0068466700
   0.0000250600    0.0002966000   -0.0064419500
  -0.0002038400    0.0004326500   -0.0068047800
   0.0002066800    0.0003796300   -0.0054497900
   0.0002044000   -0.0002806800   -0.0068095300
   0.0001448600   -0.0000887000   -0.0073759100
  -0.0003649100    0.0000501200   -0.0081701900
  -0.0002065000    0.0001644100   -0.0071702800
   0.0000719300   -0.0001278000   -0.0062435000
   0.0001449300   -0.0001692600   -0.0068088400
  -0.0018309300    0.0010829100   -0.0083979200
   0.0000546100    0.0000075800   -0.0068153200
   0.0004521600    0.0003549000   -0.0072982800
   0.0004526200   -0.0007027800   -0.0067992100
   0.0000393000   -0.0001662000   -0.0062107800
  -0.0004672300   -0.0001729600   -0.0063110100
   0.0000439300    0.0021403800   -0.0052346500
   0.0001935400   -0.0000835300   -0.0073949600
   0.0000399300    0.0000066500   -0.0068063900

1    
  0.0050000100817392  -0.0086602482171417   0.0000000000058041
  -0.1266969200    0.2146152100    0.0020307600
   0.0154845200    0.0110083200   -0.0022520800
   0.0104557800    0.0080639000   -0.0002692000
   0.0154454800   -0.0209504500    0.0057219400
  -0.0173569600   -0.0079439600    0.0096997300
   0.0026349400   -0.0046258900    0.0037057400
   0.0105339800   -0.0240899000    0.0017432800
   0.0026418300   -0.0046179400    0.0037188100
  -0.0123332000   -0.0049979100    0.0077042900
  -0.0000185300   -0.0000265400    0.0037176800
   0.0000008500   -0.0000283900    0.0037838100
   0.0000265000   -0.0000131600    0.0037729400
   0.0000015300   -0.0000917900    0.0037110200
  -0.0000286800   -0.0000443200    0.0036570100
   0.0000329800   -0.0001137200    0.0037227500
   0.0000240400   -0.0000753200    0.0037304900
   0.0000336600   -0.0001147500    0.0037222900
  -0.0000517900   -0.0000594900    0.0036688500
  -0.0001541800    0.0006170100    0.0018543500
   0.0008643100    0.0008579700    0.0015067000
  -0.0005408600    0.0010002700    0.0037197200
  -0.0004103000    0.0004830100    0.0055922400
   0.0003082100   -0.0004648000    0.0037204800
   0.0001474200   -0.0006698400    0.0033666400
   0.0005232900   -0.0008336700    0.0037154500
  -0.0011346700   -0.0002800000    0.0059461200
   0.0005686000   -0.0004257600    0.0040708800
   0.0005673300    0.0010341800    0.0042456700
   0.0001431500    0.0004463700    0.0040753900
  -0.0005401600    0.0009966800    0.0037212600
  -0.0011291700    0.0000634500    0.0031938800
   0.0003113000   -0.0004669100    0.0037211300
   0.0008634400   -0.0002518700    0.0035521700
   0.0005193000   -0.0008320800    0.0037343000
  -0.0004073100    0.0001390100    0.0033667000
  -0.0001524500   -0.0008426200    0.0038952000
   0.0019115400    0.0011830400    0.0042991700
   0.0007107800    0.0014028500   -0.0124081600
  -0.0020495400    0.0034765900    0.0064288600
  -0.0020577800   -0.0010989500    0.0085749400
   0.0019090800   -0.0033783500    0.0064194800
   0.0001363800   -0.0023508200    0.0045851700
   0.0007283100   -0.0013099500    0.0063805200
  -0.0016660400    0.0000553000    0.0252366800
   0.0019101600   -0.0013343900    0.0082434300
  -0.0000719800    0.0000442900    0.0062508900
   0.0001354900   -0.0000878700    0.0063993900
  -0.0000711700    0.0000442200    0.0064252900
  -0.0000713400    0.0000472900    0.0065970000
  -0.0000955600    0.0000908600    0.0064260900
   0.0001582000   -0.0000566200    0.0064603000
   0.0001339100   -0.0003133000    0.0064243300
  -0.0000576900   -0.0002010200    0.0064486300
  -0.0000962800   -0.0002068200    0.0063895700
   0.0001667500    0.0000123600    0.0065378600
  -0.0000362500    0.0001292500    0.0064201600
  -0.0001498900    0.0000673600    0.0069700700
  -0.0001499500    0.0003337100    0.0064250300
   0.0000871300    0.0000859000    0.0061295100
   0.0000753500    0.0002003300    0.0058772500
  -0.0000331100   -0.0000963600    0.0063054400
  -0.0000596000    0.0000065700    0.0067193800
   0.0000875900   -0.0000745300    0.0064226000
   0.0002575000    0.0012165800    0.0178984700
  -0.0011852400    0.0020380300    0.0064501700
   0.0020477100    0.0009009400    0.0067254900
   0.0020345400   -0.0034722000    0.0064221200
  -0.0002720800   -0.0020315700    0.0081053800
  -0.0017479200   -0.0012733600    0.0061268000
  -0.0011752400    0.0004826600   -0.0050726900
   0.0019792300   -0.0007337000    0.0047403000
  -0.0002794700    0.0005618900    0.0064260000
  -0.0023949700    0.0022209700   -0.0067064800
   0.0026929100    0.0008902700   -0.0063545100
  -0.0004566900    0.0008553900   -0.0033319400
  -0.0006726100    0.0032225000    0.0000510100
  -0.0006248800    0.0011336300   -0.0033377600
   0.0013059700    0.0004563800   -0.0029871400
   0.0137590800   -0.0236855700   -0.0031652400
  -0.0020665400   -0.0018671100   -0.0003016400
  -0.0010154800   -0.0008589300   -0.0036918400
  -0.0000787500    0.0000004700   -0.0034086500
  -0.0000198600   -0.0000154400   -0.0031888200
   0.0000998000   -0.0001146200   -0.0033388100
   0.0000852500    0.0000992100   -0.0032693800
  -0.0000591800    0.0001683100   -0.0033386400
  -0.0000332600    0.0001559800   -0.0031181300
  -0.0000135200    0.0000765300   -0.0033391000
   0.0000770800    0.0000392200   -0.0034888700
  -0.0000650400    0.0001333400   -0.0035579000
   0.0013894200   -0.0024620900   -0.0033304100
  -0.0011921900   -0.0017444600   -0.0086920300
  -0.0006222000   -0.0004800900   -0.0045326500
  -0.0020047100    0.0008642100    0.0007906200
   0.0020624100    0.0001181600    0.0019871500
   0.0001252600   -0.0002808200   -0.0033478600
   0.0001883500    0.0021324100   -0.0074837700
  -0.0006794700    0.0011137500   -0.0033385900
   0.0006744400    0.0002519100   -0.0021289000
  -0.0000633100    0.0000353100   -0.0033383600
   0.0000726200   -0.0001038500   -0.0032327100
   0.0000699500    0.0001843500   -0.0030506700
  -0.0001823700   -0.0003280000   -0.0031573500
  -0.0000023800   -0.0001379500   -0.0034444500
   0.0001453300   -0.0003125100   -0.0033365700
   0.0003185800   -0.0000419100   -0.0035174300
  -0.0000918800    0.0001002700   -0.0033361300
  -0.0002548500    0.0000023900   -0.0036237200
  -0.0046412300    0.0006989000   -0.0067555400
   0.0134464600   -0.0755425000   -0.0256309900
   0.0016348100   -0.0029568100   -0.0067962000
   0.0016629800    0.0043424500   -0.0068558800
  -0.0030691200    0.0052266400   -0.0068112100
   0.0024652300    0.0020399200   -0.0080962800
   0.0134874500   -0.0230252300   -0.0068215700
   0.0622091300   -0.0511853900    0.0135865700
  -0.0030609400   -0.0011346700   -0.0055243600
   0.0000206000   -0.0001183500   -0.0067651200
  -0.0000457800   -0.0000714000   -0.0067917800
   0.0000299200   -0.0001205400   -0.0068070500
   0.0000272600   -0.0001110000   -0.0068492500
   0.0000316400   -0.0001266600   -0.0068060900
  -0.0000572400   -0.0000721400   -0.0068464800
  -0.0000461700    0.0000043800   -0.0068088600
   0.0000200900   -0.0000337800   -0.0068237200
   0.0000347300   -0.0000222300   -0.0067685500
  -0.0000270700   -0.0001501600   -0.0071711900
   0.0002092000   -0.0002827200   -0.0068045300
  -0.0002008900   -0.0002320600   -0.0081716700
  -0.0002031600    0.0004253700   -0.0068091800
  -0.0001403400    0.0002361000   -0.0062424500
   0.0003686700    0.0000974300   -0.0054476600
   0.0002064500   -0.0000138400   -0.0064406400
  -0.0000666600    0.0002814100   -0.0073764400
  -0.0001402000    0.0003246100   -0.0068085700
   0.0018090800   -0.0009202100   -0.0052359000
  -0.0000309300    0.0001552200   -0.0068150300
  -0.0004436700   -0.0002089100   -0.0063123200
  -0.0004433400    0.0008489000   -0.0067991700
  -0.0000415800    0.0003178500   -0.0073951800
   0.0004691600    0.0003209600   -0.0072966900
  -0.0000415100   -0.0020130900   -0.0083960000
  -0.0001853900    0.0002286500   -0.0062104000
  -0.0000407500    0.0001468800   -0.0068062600

1    
  0.0000000000121828   0.0000000000000000   0.0100000000000000
   0.0000021000   -0.0000618000   -0.2349457600
   0.0019431500    0.0056788500   -0.0056326900
  -0.0019397700    0.0056783800   -0.0056326400
  -0.0059402100   -0.0012508700   -0.0056335600
   0.0059446000   -0.0012520600   -0.0056334600
   0.0000012700   -0.0000620200   -0.0011604700
  -0.0039990100   -0.0046143900   -0.0056327000
   0.0000011700   -0.0000625700   -0.0011636100
   0.0040035000   -0.0046144400   -0.0056327400
   0.0000020500   -0.0000619300    0.0052068000
  -0.0000085900   -0.0001280200    0.0051124200
   0.0000121800   -0.0001280900    0.0051129900
   0.0000644000   -0.0000382300    0.0051127700
  -0.0000605000   -0.0000378800    0.0051122300
   0.0000017400   -0.0000617600    0.0049943700
   0.0000534800   -0.0000208700    0.0051127600
   0.0000022500   -0.0000629600    0.0049947400
  -0.0000500700   -0.0000212800    0.0051127700
  -0.0001715800    0.0005753300    0.0047689300
   0.0001758900    0.0005746600    0.0047695400
   0.0000013300    0.0000632100    0.0044998700
   0.0003588700   -0.0003438900    0.0047689100
   0.0000015100    0.0000622800    0.0045600400
  -0.0003547500   -0.0003447300    0.0047694100
   0.0000027100    0.0000619500    0.0092243200
   0.0005315400   -0.0000438600    0.0047686200
  -0.0005286200   -0.0000439600    0.0047691600
  -0.0003524800   -0.0022993900    0.0047721300
   0.0003559300   -0.0022995700    0.0047722500
   0.0000021700    0.0000628300    0.0045067900
  -0.0022212300    0.0009361800    0.0047722900
   0.0000020100    0.0000619200    0.0045656300
   0.0022248700    0.0009365700    0.0047724600
   0.0000018800    0.0000621400    0.0091925600
  -0.0018668000    0.0015502200    0.0047721800
   0.0018705300    0.0015501100    0.0047726000
  -0.0010277800    0.0005172600    0.0067951800
  -0.0000022400    0.0153079100    0.0167846300
   0.0010244700    0.0005168800    0.0067945800
  -0.0000016700   -0.0012594600    0.0067948100
   0.0005788000    0.0002606000    0.0067897000
  -0.0005826900    0.0002609500    0.0067901000
  -0.0133242000   -0.0077659700    0.0167852200
   0.0133206400   -0.0077660800    0.0167852100
  -0.0000019900   -0.0007450200    0.0067900600
   0.0002359700   -0.0002120600    0.0077661800
  -0.0000024300   -0.0003206600    0.0078250300
  -0.0002391000   -0.0002119900    0.0077659200
  -0.0000018400    0.0001993300    0.0077657300
  -0.0001959300   -0.0001873300    0.0074575100
   0.0001922100   -0.0001866600    0.0074567200
   0.0002108200    0.0000484900    0.0078253500
  -0.0002148700    0.0000482800    0.0078254400
  -0.0000015000    0.0001496100    0.0074574800
   0.0001082400    0.0000109900    0.0080022800
  -0.0001120600    0.0000114800    0.0080017700
  -0.0000016700    0.0001053200    0.0074861100
  -0.0000284300    0.0000590800    0.0074855300
  -0.0000014600    0.0001437400    0.0075116200
   0.0000243900    0.0000593400    0.0074854900
  -0.0000022400    0.0002022200    0.0080015500
   0.0000583800    0.0000404500    0.0075109600
  -0.0000616400    0.0000403900    0.0075114600
   0.0192133700   -0.0110185500    0.0173481500
  -0.0192173700   -0.0110186900    0.0173483600
  -0.0000015100   -0.0023062600    0.0075631800
   0.0020607200    0.0012646200    0.0075628200
  -0.0000021400   -0.0019661800    0.0061715400
  -0.0020640800    0.0012648900    0.0075631500
  -0.0000019300    0.0222623700    0.0173464300
  -0.0017686000    0.0010950200    0.0061714100
   0.0017650100    0.0010953800    0.0061710300
  -0.0017465000    0.0029771500   -0.0005292800
   0.0017415000    0.0029803500   -0.0005293700
   0.0000000000    0.0000586600   -0.0016099600
   0.0016541300   -0.0029074800   -0.0005299300
   0.0000003100    0.0000645600   -0.0012779100
  -0.0016594100   -0.0029043100   -0.0005292600
  -0.0000053800    0.0000639100    0.0884504300
   0.0034010400    0.0001129200   -0.0005288200
  -0.0034005800    0.0001126500   -0.0005276500
  -0.0000256900   -0.0000351000   -0.0046941100
   0.0000210900   -0.0000317900   -0.0046946400
  -0.0000004100    0.0000586500   -0.0045154000
  -0.0000942600    0.0000889700   -0.0046951300
   0.0000005400    0.0000646000   -0.0045791000
   0.0000886800    0.0000916700   -0.0046941800
  -0.0000050800    0.0000622600   -0.0047113300
  -0.0000680100    0.0001287700   -0.0046943900
   0.0000681500    0.0001282600   -0.0046924700
  -0.0000051000   -0.0000620500   -0.0102106300
  -0.0009779900    0.0005029200   -0.0029929900
   0.0009781700    0.0005032500   -0.0029913700
  -0.0000032300   -0.0011957600   -0.0029930600
  -0.0000020300   -0.0011930300   -0.0029935600
   0.0000003100   -0.0000646600   -0.0034954200
  -0.0009808200    0.0005041900   -0.0029933600
  -0.0000002900   -0.0000584500   -0.0034245400
   0.0009761700    0.0005074200   -0.0029928500
  -0.0000053600   -0.0000620700   -0.0050961700
   0.0005545800   -0.0004340400   -0.0047418300
  -0.0005541300   -0.0004335600   -0.0047400600
   0.0000419700    0.0005996800   -0.0047418100
  -0.0000475300    0.0006027100   -0.0047426600
   0.0000006200   -0.0000646700   -0.0042689400
   0.0005966500   -0.0003545600   -0.0047419900
  -0.0000001300   -0.0000587000   -0.0043083200
  -0.0006014600   -0.0003511500   -0.0047418700
   0.0015973100   -0.0009988900   -0.0040138900
  -0.0000006200    0.0225324300    0.0295842400
  -0.0015917800   -0.0009970700   -0.0040130500
   0.0000017000    0.0017676700   -0.0040128100
   0.0014540600    0.0007637000   -0.0037575100
  -0.0014507700    0.0007663100   -0.0037574600
  -0.0195816600   -0.0113778400    0.0295836600
   0.0195823400   -0.0113795100    0.0295848000
   0.0000042500   -0.0017500300   -0.0037581800
  -0.0000307100   -0.0000588700   -0.0079961000
  -0.0000004400   -0.0000220000   -0.0081286300
   0.0000361500   -0.0000568200   -0.0079954100
   0.0000013600   -0.0001122700   -0.0079952700
   0.0000589400   -0.0000419700   -0.0081920300
  -0.0000553000   -0.0000393700   -0.0081924000
  -0.0000476100   -0.0000999700   -0.0081294800
   0.0000480400   -0.0001013200   -0.0081285400
   0.0000045400   -0.0001390200   -0.0081932200
   0.0005451100   -0.0002423800   -0.0089054900
  -0.0005444600   -0.0002409200   -0.0089045500
   0.0000040400    0.0000652200   -0.0076596200
   0.0000081600    0.0000762600   -0.0076586900
   0.0000015800   -0.0000927600   -0.0077787300
  -0.0000050000    0.0000786600   -0.0076585800
  -0.0000004500    0.0007063500   -0.0089045900
  -0.0001415000    0.0001596800   -0.0077790800
   0.0001467500    0.0001613900   -0.0077798000
  -0.0034959900    0.0020907700   -0.0107854700
   0.0034961300    0.0020921700   -0.0107843600
   0.0000046000    0.0000060800   -0.0067715300
   0.0000596900    0.0001055100   -0.0067706700
   0.0000012800    0.0008281600   -0.0070324900
  -0.0000561200    0.0001082400   -0.0067704600
  -0.0000005800   -0.0039595800   -0.0107844200
   0.0006562700   -0.0003010000   -0.0070324400
  -0.0006510500   -0.0002989100   -0.0070334200

1    
 -0.0000000000121828   0.0000000000000000  -0.0100000000000000
   0.0000021300   -0.0000619700    0.2492104300
  -0.0020430100   -0.0058267000    0.0131397500
   0.0020464900   -0.0058271500    0.0131399300
   0.0060170600    0.0010499600    0.0131391500
  -0.0060127400    0.0010489200    0.0131392000
   0.0000013300   -0.0000619700    0.0086323200
   0.0039721200    0.0045903400    0.0131398500
   0.0000012700   -0.0000626700    0.0086296100
  -0.0039677400    0.0045903600    0.0131398600
   0.0000021500   -0.0000619500    0.0022323200
   0.0000112000    0.0000042700    0.0023267700
  -0.0000077200    0.0000042200    0.0023273800
  -0.0000601000   -0.0000871400    0.0023270900
   0.0000640300   -0.0000869000    0.0023266400
   0.0000017100   -0.0000618000    0.0024441200
  -0.0000511200   -0.0001042100    0.0023271400
   0.0000021800   -0.0000630000    0.0024445100
   0.0000546000   -0.0001046900    0.0023271600
   0.0001728300   -0.0004412400    0.0026609900
  -0.0001686100   -0.0004418700    0.0026615100
   0.0000014200    0.0000632100    0.0029265400
  -0.0003492100    0.0004625300    0.0026609700
   0.0000014400    0.0000622000    0.0028674000
   0.0003533900    0.0004617500    0.0026614200
   0.0000026500    0.0000622900   -0.0016992700
  -0.0005209800    0.0001661600    0.0026608400
   0.0005239600    0.0001661900    0.0026612800
   0.0003554900    0.0024230500    0.0026647400
  -0.0003519800    0.0024227000    0.0026648200
   0.0000021000    0.0000628000    0.0029339300
   0.0022224100   -0.0008117400    0.0026648200
   0.0000019400    0.0000619800    0.0028737000
  -0.0022187100   -0.0008114600    0.0026650400
   0.0000020500    0.0000620700   -0.0017290800
   0.0018688000   -0.0014240300    0.0026647700
  -0.0018652400   -0.0014241700    0.0026652400
   0.0010139400   -0.0006614600    0.0060357000
  -0.0000022400   -0.0152362000   -0.0038902400
  -0.0010172700   -0.0006617600    0.0060351800
  -0.0000016500    0.0010981600    0.0060353700
  -0.0005738000   -0.0004048800    0.0060226800
   0.0005698900   -0.0004045600    0.0060229700
   0.0131280100    0.0075060200   -0.0038901200
  -0.0131316200    0.0075058300   -0.0038899600
  -0.0000019200    0.0005857600    0.0060229900
  -0.0002376000    0.0000613500    0.0050879700
  -0.0000023100    0.0001728300    0.0050280700
   0.0002343500    0.0000613600    0.0050877700
  -0.0000018100   -0.0003473900    0.0050875500
   0.0001930500    0.0000373600    0.0053970800
  -0.0001968000    0.0000378900    0.0053963800
  -0.0002164900   -0.0001983100    0.0050284000
   0.0002125400   -0.0001984800    0.0050284600
  -0.0000016100   -0.0002995900    0.0053971100
  -0.0001089000    0.0001364300    0.0048573700
   0.0001051400    0.0001368000    0.0048569900
  -0.0000017400    0.0000449900    0.0053643600
   0.0000238500    0.0000892300    0.0053637500
  -0.0000015400    0.0000058400    0.0053381700
  -0.0000278200    0.0000894700    0.0053637700
  -0.0000021800   -0.0000485300    0.0048567700
  -0.0000610500    0.0001094200    0.0053375700
   0.0000577300    0.0001093100    0.0053380800
  -0.0192750300    0.0112021500   -0.0045970300
   0.0192710600    0.0112020200   -0.0045969600
  -0.0000015700    0.0024772000    0.0052783700
  -0.0020821100   -0.0011270300    0.0052780300
  -0.0000020800    0.0021260200    0.0066791400
   0.0020787000   -0.0011267900    0.0052783400
  -0.0000019300   -0.0221787200   -0.0045965100
   0.0017750700   -0.0009508800    0.0066790100
  -0.0017786600   -0.0009505900    0.0066787300
   0.0017742300   -0.0028854200   -0.0061505300
  -0.0017792100   -0.0028822500   -0.0061506500
  -0.0000000400    0.0000585900   -0.0050738100
  -0.0016625000    0.0030727600   -0.0061511600
   0.0000003100    0.0000644100   -0.0054060100
   0.0016572100    0.0030758600   -0.0061504600
  -0.0000052600    0.0000607200   -0.1015349700
  -0.0034362800   -0.0000050300   -0.0061502300
   0.0034366800   -0.0000053200   -0.0061490100
   0.0000195800    0.0001502300   -0.0019833600
  -0.0000242100    0.0001535000   -0.0019838500
  -0.0000003900    0.0000586900   -0.0021590600
   0.0000888400    0.0000355700   -0.0019843600
   0.0000004900    0.0000646100   -0.0020954900
  -0.0000943700    0.0000382700   -0.0019834000
  -0.0000050700    0.0000622800   -0.0019664100
   0.0000697900   -0.0000030800   -0.0019836300
  -0.0000696800   -0.0000035300   -0.0019817000
  -0.0000050900   -0.0000622400    0.0034389100
   0.0009663900   -0.0006131500   -0.0036563600
  -0.0009662300   -0.0006128000   -0.0036547800
  -0.0000089200    0.0010462200   -0.0036563700
   0.0000036300    0.0010489400   -0.0036568900
   0.0000003400   -0.0000647000   -0.0031676100
   0.0009578900   -0.0006217400   -0.0036566300
  -0.0000003200   -0.0000585200   -0.0032368300
  -0.0009625200   -0.0006185300   -0.0036561600
  -0.0000053300   -0.0000621200   -0.0015781400
  -0.0005500100    0.0003083100   -0.0019355100
   0.0005504100    0.0003087200   -0.0019337600
  -0.0000486000   -0.0007280500   -0.0019355600
   0.0000430800   -0.0007250200   -0.0019364100
   0.0000005600   -0.0000646900   -0.0024052400
  -0.0005985200    0.0002307900   -0.0019357100
  -0.0000001100   -0.0000587200   -0.0023668700
   0.0005936700    0.0002341600   -0.0019355800
  -0.0016085500    0.0008520900   -0.0096133700
  -0.0000005900   -0.0222384500   -0.0433580200
   0.0016140900    0.0008539300   -0.0096125600
   0.0000017000   -0.0019342400   -0.0096123200
  -0.0014669600   -0.0009227800   -0.0098685500
   0.0014702600   -0.0009201400   -0.0098684900
   0.0191938100    0.0110093800   -0.0433587900
  -0.0191930000    0.0110077400   -0.0433576800
   0.0000043000    0.0016228200   -0.0098694300
   0.0000343100   -0.0000964500   -0.0056196800
  -0.0000004300   -0.0001298800   -0.0054867300
  -0.0000289000   -0.0000944100   -0.0056189800
   0.0000013600   -0.0000371600   -0.0056188600
  -0.0000555300   -0.0001080300   -0.0054235100
   0.0000591500   -0.0001054600   -0.0054238400
   0.0000457900   -0.0000460400   -0.0054875500
  -0.0000453600   -0.0000473900   -0.0054866100
   0.0000045400   -0.0000068500   -0.0054246100
  -0.0005363300    0.0003820000   -0.0047272000
   0.0005369600    0.0003834200   -0.0047262400
   0.0000040500    0.0000815100   -0.0059492700
  -0.0000059000    0.0000681100   -0.0059483400
   0.0000015200    0.0002385100   -0.0058304000
   0.0000091000    0.0000704900   -0.0059481600
  -0.0000004100   -0.0005423100   -0.0047264200
   0.0001454000   -0.0000059900   -0.0058307100
  -0.0001401900   -0.0000042500   -0.0058314100
   0.0034720300   -0.0019321900   -0.0028445800
  -0.0034718500   -0.0019307600   -0.0028435500
   0.0000045600    0.0001377700   -0.0068408400
  -0.0000543500    0.0000396700   -0.0068399300
   0.0000013200   -0.0006792400   -0.0065798500
   0.0000578600    0.0000423900   -0.0068397600
  -0.0000005700    0.0040864000   -0.0028436100
  -0.0006491900    0.0004527200   -0.0065799200
   0.0006544100    0.0004547500   -0.0065808600

37   
 -0.0050000100817392   0.0086602482171417  -0.0000000000058041
  -0.0019065000   -0.0013131100    0.0047373100
   0.0020614700   -0.0036102900    0.0037230900
  -0.0007428700   -0.0015259600    0.0169240000
  -0.0007499700    0.0011644300    0.0037442200
  -0.0019065600    0.0011919600    0.0031447000
   0.0016658200   -0.0002244100   -0.0095258200
   0.0020688200    0.0009601100    0.0026957500
  -0.0001426100    0.0022210300    0.0042953000
  -0.0019170000    0.0032356900    0.0037197600
   0.0000729400   -0.0001815400    0.0034817700
   0.0000709900   -0.0001805100    0.0037229100
  -0.0001362900   -0.0000462000    0.0035076800
  -0.0001364700    0.0001744000    0.0037215400
   0.0000972600    0.0000691700    0.0039120000
   0.0000592100    0.0000652400    0.0039376500
   0.0000679700   -0.0001853000    0.0039580800
  -0.0001579900   -0.0000800800    0.0035267700
   0.0000988500   -0.0002301400    0.0037205600
   0.0011417200   -0.0019266100    0.0036671100
  -0.0020416300   -0.0007686200    0.0057910200
  -0.0002457900   -0.0011141900    0.0229433500
   0.0002793200    0.0021734000    0.0055063100
   0.0017471300    0.0014104600    0.0016458100
  -0.0020422200    0.0035976900    0.0037292100
  -0.0019653900    0.0008787300    0.0019641400
   0.0002746200   -0.0004198400    0.0037223200
   0.0011519200   -0.0003098000   -0.0155361800
   0.0000338100    0.0000114300    0.0037233100
   0.0001480600    0.0000741800    0.0036954200
  -0.0001625900    0.0001236100    0.0038316700
  -0.0000849600    0.0000438500    0.0036629900
  -0.0000739100   -0.0000667300    0.0037479500
   0.0001463600   -0.0001959700    0.0037223100
   0.0000550300    0.0001313400    0.0037821500
  -0.0000822700    0.0002136000    0.0037210300
   0.0000326400    0.0002341100    0.0036136400
   0.1256708500   -0.2129836000    0.0047723500
  -0.0105501700   -0.0079434800    0.0022561900
  -0.0150679700   -0.0106049200    0.0003276200
  -0.0106232900    0.0235327400    0.0044982200
   0.0121631500    0.0050630500    0.0105774000