   8  144
1 1
    24.926796738907157     0.000000000000011     0.000000000834617
    -0.000000000000047    24.926499747745957    -0.000038665788088
    -0.000000000875925    -0.000008499999942    24.207809499999996
1 2
    -2.594184269962065    -0.291075912421917     0.199109095011348
     0.291214227572797     1.111591406923585    -0.575252855024248
    -0.199310495696057    -0.575276999645386     0.938625249526062
1 3
    -2.594184270909934     0.291075913757506    -0.199109103213280
    -0.291214228974431     1.111591406923585    -0.575252855700344
     0.199310504303934    -0.575277000354608     0.938625250473930
1 4
     0.185119127497842     1.313556851278933     0.398585199250702
     1.895852993541675    -1.667833546781084     0.460080926115593
     0.597865250917993     0.115045248399721     0.938634250208432
1 5
     0.185119127914699    -1.313556851546027    -0.398585201000098
    -1.895852992420663    -1.667833546781084     0.460080921714094
    -0.597865249082013     0.115045251600271     0.938634249791575
1 6
    -0.526927937529991    -0.000000000000003    -0.000000001180055
     0.000000000000000    -0.526887323040956    -0.000000000353150
     0.000000001238460     0.000002499999999     0.489639499999997
1 7
     0.185090627301432     1.895974676521300     0.597754296485697
     1.313540295801171    -1.667780430520620     0.115133248987682
     0.398559250918022     0.460238247690175     0.938628749734430
1 8
    -0.526736937915115     0.000000000000006    -0.000000001179858
    -0.000000000000001    -0.526741253324675    -0.000001155054337
     0.000000001238254    -0.000005000000001     0.489660999999994
1 9
     0.185090626770285    -1.895974677589810    -0.597754298235146
    -1.313540295520643    -1.667780430520620     0.115133245938107
    -0.398559249081987     0.460238252309817     0.938628750265577
1 10
     0.003951992031378     0.000000000000001     0.000000000177230
    -0.000000000000018     0.003986606288220    -0.000015011114439
    -0.000000000186002    -0.000001000000000    -0.148724000000006
1 11
    -0.002297495355932     0.001433497101892    -0.001004997817361
    -0.001392858453269     0.004730522610069     0.006584684242629
     0.000992249833117     0.006614999998254    -0.139281499997621
1 12
    -0.002297495351180    -0.001433497117250     0.001004998135389
     0.001392858469312     0.004730522610069     0.006584684245862
    -0.000992250166886     0.006615000001746    -0.139281500002373
1 13
     0.002980493982414     0.004444991040194    -0.005196989352641
     0.001630726922647    -0.000549060475032    -0.004155770026899
    -0.006225750173312    -0.002448250005415    -0.139281750000896
1 14
     0.002980493980623    -0.004444991034510     0.005196989682924
    -0.001630726932773    -0.000549060475032    -0.004155770030685
     0.006225749826683    -0.002448249994585    -0.139281749999105
1 15
    -0.006006987887846     0.000000000000002     0.000000000141046
    -0.000000000000013    -0.005999828030004    -0.000010969666513
    -0.000000000148027    -0.000002000000000    -0.127512499999998
1 16
     0.002947494050129     0.001631996714166    -0.006211987300375
     0.004474178910883    -0.000555411332262    -0.002465864649888
    -0.005231750173273    -0.004168750001988    -0.139280749998507
1 17
    -0.005946988008854     0.000000000000002     0.000000000141115
    -0.000000000000029    -0.005975001951743    -0.000023671380932
    -0.000000000148099    -0.000002000000000    -0.127511499999996
1 18
     0.002947494053118    -0.001631996704488     0.006211987630579
    -0.004474178916891    -0.000555411332262    -0.002465864660276
     0.005231749826726    -0.004168749998012    -0.139280750001497
1 19
    -0.070509358390068     0.024381450897516    -0.035331928836280
    -0.058808072232765     0.078753805075705    -0.236206855705527
     0.017222749957492    -0.050827500029703    -0.105399249936961
1 20
    -0.070509358263995    -0.024381450779513     0.035331928917282
     0.058808071657234     0.078753805075705    -0.236206855568996
    -0.017222750042503    -0.050827499970296    -0.105399250063035
1 21
     0.108089782053427     0.000000000000000     0.000000000216791
     0.000000000000015     0.108077156281430     0.000012124436244
    -0.000000000227521     0.000000000000000    -0.078666500000005
1 22
     0.026512946495633    -0.114830268509044    -0.222225051827482
    -0.031637661364994    -0.018264199366356     0.087477573487596
    -0.035405500160706     0.040322500139895    -0.105398249770370
1 23
    -0.061033876934464     0.000000000000005     0.000000000027393
     0.000000000000006    -0.061020768314007     0.000004618764353
    -0.000000000028749    -0.000004000000000    -0.084631999999996
1 24
     0.026512946954897     0.114830268415429     0.222225052133733
     0.031637661578138    -0.018264199366356     0.087477573561047
     0.035405499839297     0.040322499860105    -0.105398250229634
1 25
    -0.103454791399195    -0.000000000000020     0.000000000513925
    -0.000000000000023    -0.103495878816257    -0.000019052641023
    -0.000000000539361     0.000017000000000    -0.546179499999996
1 26
     0.056332886560517    -0.014415970944582    -0.186886123181054
    -0.097591890945632    -0.048133146943169     0.148711961488205
    -0.052627500197028     0.010504250017563    -0.105391499833414
1 27
     0.056332886893693     0.014415970920195     0.186886123556521
     0.097591891307977    -0.048133146943169     0.148711961714779
     0.052627499802978     0.010504249982437    -0.105391500166589
1 28
    -0.070528357745052    -0.058788381736265    -0.017198965231472
     0.024363909109907     0.078728978997443     0.050844962961224
     0.035396999957551     0.236117750071621    -0.105370499937959
1 29
    -0.070528357620967     0.058788381188083     0.017198965312363
    -0.024363908986021     0.078728978997443     0.050844962904660
    -0.035397000042446     0.236117749928380    -0.105370500062044
1 30
     0.108131781968703     0.000000000000002     0.000000000216812
    -0.000000000000007     0.108106601164949    -0.000005773434102
    -0.000000000227543    -0.000001500000000    -0.078642999999996
1 31
     0.026501946263002    -0.031668436043963     0.035431428480138
    -0.114821766683486    -0.018289025444616    -0.040333428354755
     0.222180499839342    -0.087398749961419    -0.105372249785255
1 32
    -0.061011876978843    -0.000000000000003     0.000000000027378
    -0.000000000000006    -0.061019613612693    -0.000004618846148
    -0.000000000028733     0.000003000000000    -0.084596499999996
1 33
     0.026501946692496     0.031668436246872    -0.035431428173972
     0.114821766585211    -0.018289025444616    -0.040333428088180
    -0.222180500160660    -0.087398750038581    -0.105372250214749
1 34
    -0.103441791425428     0.000000000000004     0.000000000513827
    -0.000000000000035    -0.103456618971565    -0.000028867602187
    -0.000000000539258    -0.000003500000000    -0.546082000000010
1 35
     0.056323386257531    -0.097589803052381     0.052617394063703
    -0.014435787134032    -0.048119867878052    -0.010525391135763
     0.186784249803015    -0.148713249881109    -0.105369249847274
1 36
     0.056323386562973     0.097589803397641    -0.052617393688310
     0.014435787108387    -0.048119867878052    -0.010525391102248
    -0.186784250196988    -0.148713250118891    -0.105369250152716
1 37
     0.013726972203143     0.228986038352908     0.213827069370699
     0.229003251439663     0.278142431903068    -0.123454024735912
     0.102086499937019    -0.058934000278968    -0.037972000141996
1 38
    -0.143557715123707     0.000000001772815     0.000000001033348
    -0.000000002647728     0.172423464381126    -2.173338977002815
    -0.000000001084492    -1.527205500000000    -1.033743500000005
1 39
     0.013726971919151    -0.228986038216084    -0.213827069250672
    -0.229003251740465     0.278142431903068    -0.123454025267577
    -0.102086500062987    -0.058933999721031    -0.037971999858004
1 40
     0.410364173084037    -0.000000000136839     0.000000000520439
     0.000000000300771    -0.118436559124229     0.246882646867998
    -0.000000000546197     0.117881000000000    -0.037972000000001
1 41
    -0.204562587909526     0.102282293801944    -0.182940131116395
     0.102260925503070    -0.322646352614847    -0.105626591435180
    -0.057629499797515    -0.033274750124609    -0.038353749844026
1 42
    -0.204562587597578    -0.102282293724692     0.182940130730517
    -0.102260925760434    -0.322646352614847    -0.105626591672594
     0.057629500202491    -0.033274749875393    -0.038353750155974
1 43
     0.093423814675785     0.136852223171912     1.882173206467739
     0.136850583633871    -0.064589661401719     1.086670932051421
     1.322611748626781     0.763597499833276    -1.033762750757685
1 44
     0.093423813160406    -0.136852224944715    -1.882173203850812
    -0.136850580986140    -0.064589661401719     1.086670931733703
    -1.322611751373230     0.763597500166724    -1.033762749242307
1 45
    -0.381715229883614    -0.000000000077240    -0.000000000398582
     0.000000000257329    -0.145516037000603     0.211223737694232
     0.000000000418309     0.066539000000000    -0.038353500000004
1 46
     0.014024471749260    -0.000154999703334     0.017356465174711
    -0.000170607119219     0.013834476448707    -0.010025405478386
    -0.023675500180222     0.013669000000189    -0.133909000048624
1 47
    -0.027629944294314    -0.000000000028643     0.000000000130265
    -0.000000000003402    -0.001708957945421    -0.002792645147571
    -0.000000000136713     0.024674500000000    -0.139848000000007
1 48
     0.014024471652004     0.000154999671599    -0.017356464831262
     0.000170607094792     0.013834476448707    -0.010025405477989
     0.023675499819774     0.013668999999811    -0.133908999951368
1 49
     0.013740972335731     0.000000000031732     0.000000000171395
     0.000000000024428     0.014131812037184     0.020051388335041
    -0.000000000179878    -0.027336000000000    -0.133909000000002
1 50
    -0.006560986784469    -0.014893469982621     0.003658492705212
    -0.014903729860784     0.010650676249375     0.002094916838086
     0.019449749882490     0.011231000018144    -0.103019249981878
1 51
    -0.006560986748227     0.014893469956547    -0.003658492481270
     0.014903729865888     0.010650676249375     0.002094916872687
    -0.019449750117516     0.011230999981856    -0.103019250018120
1 52
    -0.008165483504845     0.011227977374815     0.002395995344315
     0.011247656832361    -0.021152396029182     0.001410467663214
    -0.021368000160427    -0.012339000013679    -0.139848250027726
1 53
    -0.008165483560292    -0.011227977346169    -0.002395995038595
    -0.011247656828924    -0.021152396029182     0.001410467637101
     0.021367999839575    -0.012338999986321    -0.139848249972279
1 54
     0.019218961238994     0.000000000026072     0.000000000141896
    -0.000000000005135    -0.015162960311008    -0.004215237135604
    -0.000000000148919    -0.022460000000000    -0.103018499999994
1 55
    -0.013556972651815     0.011361477084033    -0.011495476631445
     0.011380736155455    -0.000426373460369     0.006640398588334
    -0.010858500175044     0.006268999986159    -0.157242249998602
1 56
    -0.013556972649016    -0.011361477098587     0.011495476965031
    -0.011380736139275    -0.000426373460369     0.006640398561912
     0.010858499824948     0.006269000013841    -0.157242250001402
1 57
     0.029855939932950     0.000000000003502     0.000000000157806
     0.000000000076736    -0.000747669101122     0.062987224672566
    -0.000000000165617    -0.003016500000000    -0.106087499999996
1 58
     0.006883985983529    -0.013249473286203    -0.054570889861632
    -0.013263476725446     0.022232907784201    -0.031489282207131
     0.002612249862371     0.001507000016142    -0.106087499930487
1 59
    -0.017396964993850     0.000000000008004     0.000000000105955
    -0.000000000041675     0.001700297685562    -0.034208026452935
    -0.000000000111199    -0.006895000000000    -0.108672499999995
1 60
     0.006883986122558     0.013249473282704     0.054570890123911
     0.013263476648721     0.022232907784201    -0.031489282176338
    -0.002612250137632     0.001506999983859    -0.106087500069517
1 61
     0.006143987583579     0.000000000014554     0.000000000189659
    -0.000000000016168    -0.020153002041505    -0.013271559553783
    -0.000000000199046    -0.012537500000000    -0.157239000000003
1 62
    -0.003101493739393    -0.008264983338920    -0.029624440160905
    -0.008269682138938    -0.012679775134233     0.017097373676402
    -0.005970000128610     0.003447250010069    -0.108669249970837
1 63
    -0.003101493681072     0.008264983330917     0.029624440405996
     0.008269682180597    -0.012679775134233     0.017097373695601
     0.005969999871389     0.003447249989931    -0.108669250029159
1 64
     0.089769321227664     0.080387336621450    -1.148556182571671
     0.080381356578417     0.182638818234936     0.663085209262562
    -1.924420751446137     1.111035249902066    -1.097262500834652
1 65
     0.089769319558358    -0.080387339200880     1.148556185327538
    -0.080381354962775     0.182638818234936     0.663085209075945
     1.924420748553871     1.111035250097934    -1.097262499165347
1 66
    -0.408671175903717    -0.000000000277637    -0.000000000341782
     0.000000000042170     0.096104635702311     0.034614481030079
     0.000000000358698     0.239173000000000    -0.114240499999996
1 67
    -0.030095939148723     0.218575059415466    -0.030001438969550
     0.218559555358728    -0.282418868221220    -0.017301755587203
    -0.207140250102511    -0.119583250266285    -0.114240000203902
1 68
     0.055885887724700    -0.000000000237516     0.000000000035412
     0.000000000236765    -0.243827306914875     0.194344314172540
    -0.000000000037165     0.204609999999999     0.025379999999997
1 69
    -0.030095939556529    -0.218575059137836     0.030001439164903
    -0.218559555400885    -0.282418868221220    -0.017301756094621
     0.207140249897489    -0.119583249733716    -0.114239999796095
1 70
     0.229034535388380     0.000000002579412     0.000000001539462
    -0.000000001615618     0.043295525786189    -1.326150210791667
    -0.000000001615656    -2.222054500000000    -1.097147000000003
1 71
    -0.168919159605855     0.129780238436645     0.168311660660457
     0.129742528369590    -0.019084614650289    -0.097155413861085
     0.177183500236716    -0.102296750158108     0.025382500000628
1 72
    -0.168919159604598    -0.129780238199148    -0.168311661111557
    -0.129742528606315    -0.019084614650289    -0.097155414162301
    -0.177183499763290    -0.102296749841892     0.025382499999371
1 73
    -0.030332439780870    -0.133428230622004     0.035296928528534
    -0.294257443873525     0.172626980487798    -0.369778085204948
     0.176035999694539    -0.293129249837447    -0.281063249838656
1 74
    -0.030332439458180     0.133428231302546    -0.035296927946426
     0.294257442972541     0.172626980487798    -0.369778084521786
    -0.176036000305458    -0.293129250162552    -0.281063250161347
1 75
     0.091887814722183     0.000000000000004     0.000000000307711
    -0.000000000000012     0.091900945566971    -0.000009814899589
    -0.000000000322941    -0.000003500000000    -0.173192499999998
1 76
    -0.063295872095027    -0.275225445396866    -0.302560889909230
    -0.114400300629847     0.205609580159088     0.215429448637481
    -0.165831250265297     0.299010250335301    -0.281060749823897
1 77
     0.123798750378641     0.000000000000009     0.000000000383308
    -0.000000000000009     0.123798414677986    -0.000007505475573
    -0.000000000402279    -0.000007500000000    -0.206405000000000
1 78
    -0.063295871742822     0.275225444702670     0.302560890414803
     0.114400301154752     0.205609580159088     0.215429448903078
     0.165831249734702     0.299010249664700    -0.281060750176101
1 79
    -2.744836465455196     0.000000000000185     0.000000007840701
    -0.000000000000158    -2.744895920297967    -0.000129905737448
    -0.000000008228767    -0.000159500000006    -9.499270000000006
1 80
     0.307077381136012     0.099442299496581    -0.337877818161493
    -0.061393159537587    -0.164788867965151     0.154309376320186
    -0.341864500716524    -0.005898000121149    -0.281069249985213
1 81
     0.307077381165581    -0.099442299482888     0.337877819526961
     0.061393159913570    -0.164788867965151     0.154309376462719
     0.341864499283474    -0.005897999878852    -0.281069250014782
1 82
     0.009379981120761    -0.001993495991174     0.022090455304712
    -0.003380965427593    -0.007758726807276     0.004635837104644
     0.002264250153697     0.009265500002429     0.135538499975717
1 83
     0.009379981072194     0.001993495969663    -0.022090455597608
     0.003380965438888    -0.007758726807276     0.004635837112493
    -0.002264249846305     0.009265499997571     0.135538500024285
1 84
    -0.020013959644869    -0.000000000000002    -0.000000000159997
     0.000000000000015    -0.019997117364051     0.000012701701045
     0.000000000167916     0.000002000000000     0.117816999999999
1 85
    -0.005812988235797     0.005386989141055     0.015043969515649
     0.006768859136518     0.007413182438920     0.016821111402553
     0.009153750172206    -0.002670000006563     0.135538749992297
1 86
     0.012027975747430    -0.000000000000001    -0.000000000130189
     0.000000000000008     0.012020440683669     0.000006350865290
     0.000000000136633     0.000000500000000     0.124180500000003
1 87
    -0.005812988251201    -0.005386989134857    -0.015043969843818
    -0.006768859095532     0.007413182438920     0.016821111386838
    -0.009153749827795    -0.002669999993437     0.135538750007700
1 88
     0.001598996775880    -0.000000000000001    -0.000000000157462
     0.000000000000008     0.001596951917917     0.000006350858301
     0.000000000165256     0.000001000000000     0.137245999999999
1 89
    -0.001152497737970     0.009462480927998    -0.007042985941333
     0.008072805533747     0.002761179518235    -0.021433565790658
     0.006890750166527    -0.006591000011528     0.135538250016580
1 90
    -0.001152497704812    -0.009462480912696     0.007042985623986
    -0.008072805585971     0.002761179518235    -0.021433565809400
    -0.006890749833473    -0.006590999988472     0.135538249983422
1 91
    -0.277548440365802     0.000000000000011    -0.000000001114419
    -0.000000000000000    -0.277567679323789    -0.000000000186016
     0.000000001169576    -0.000009500000001     0.682476999999999
1 92
     0.180500635642130     0.126472245052739     0.413701666014599
    -0.033310246338407    -0.122091477459866    -0.377681726582976
     0.097219499739689    -0.055803000154078    -0.033169500391149
1 93
     0.180500634859834    -0.126472244923185    -0.413701665518533
     0.033310245418166    -0.122091477459866    -0.377681726505642
    -0.097219500260308    -0.055802999845922    -0.033169499608852
1 94
    -0.006091486416128    -0.074427850057692     0.120225757143573
    -0.234213551694771     0.064510275686346     0.547135587664942
    -0.000283750032985     0.112098750090674    -0.033166000146795
1 95
    -0.006091486709723     0.074427849797439    -0.120225757080715
     0.234213553027895     0.064510275686346     0.547135588208703
     0.000283749967017     0.112098749909326    -0.033165999853200
1 96
    -0.024954949682139     0.000000000000002    -0.000000000047995
     0.000000000000001    -0.024945012496570     0.000001154684590
     0.000000000050370    -0.000002000000000     0.016390499999998
1 97
    -0.086789324822098    -0.187623121621173     0.533943423266090
    -0.027848797458003     0.145208597775625    -0.169437695547715
     0.096935000065329    -0.056296999771423    -0.033164500537967
1 98
     0.135449726886254     0.000000000000004     0.000000000146338
     0.000000000000011     0.135452237694310     0.000008660350637
    -0.000000000153581    -0.000003500000000     0.009385500000002
1 99
    -0.086789325898031     0.187623121751875    -0.533943423390588
     0.027848797045159     0.145208597775625    -0.169437695483060
    -0.096934999934669    -0.056297000228576    -0.033164499462035
1 100
     0.011255977304058     0.000000000000003    -0.000000000191124
     0.000000000000013     0.011250832257572     0.000010969670031
     0.000000000200584    -0.000002500000000     0.175901499999998
1 101
    -0.014031971572972     0.028701442084824     0.018026463472758
    -0.000224012014835     0.011953756682758     0.022567771155733
    -0.055228249811963     0.037115749965034     0.140315499913930
1 102
    -0.014031971745115    -0.028701442170994    -0.018026463831099
     0.000224012069822     0.011953756682758     0.022567771156253
     0.055228250188038     0.037115750034966     0.140315500086073
1 103
     0.017787464113920     0.018587962597265    -0.028547942600427
    -0.010334865454659    -0.019875296375374     0.004339367539715
    -0.004529499850731    -0.066386500022645     0.140312500029520
1 104
     0.017787464172963    -0.018587962443139     0.028547942315967
     0.010334865465233    -0.019875296375374     0.004339367563709
     0.004529500149269    -0.066386499977355     0.140312499970478
1 105
    -0.028675942179314     0.000000000000001    -0.000000000141459
     0.000000000000007    -0.028673543041005     0.000005773487353
     0.000000000148460    -0.000001000000000     0.093185000000003
1 106
    -0.006880486126726     0.003912992076074    -0.010517478897976
     0.032823828200398     0.004801825416238    -0.026886931398695
    -0.059757499820676     0.029266499995233     0.140314249943446
1 107
     0.018425962846850     0.000000000000001    -0.000000000091295
     0.000000000000000     0.018424991524396     0.000000000012349
     0.000000000095813    -0.000001000000000     0.097072499999999
1 108
    -0.006880486239836    -0.003912992144020     0.010517478556242
    -0.032823828265909     0.004801825416238    -0.026886931474900
     0.059757500179323     0.029266500004767     0.140314250056556
1 109
     0.299444396402011    -0.363983266190561    -0.005112989749632
    -0.363971669283209    -0.120829677598475     0.002951993688634
    -0.160293250705894     0.092549500443432    -0.279974750179843
1 110
    -2.660721639837180     0.000000002598553     0.000000001145026
    -0.000000002758299    -8.942752338980995    -2.264099656708748
    -0.000000001201697    -2.238544000000021    -3.647113000000007
1 111
     0.299444396042324     0.363983265975694     0.005112991094838
     0.363971669290401    -0.120829677598475     0.002951994533647
     0.160293249294109     0.092549499556567    -0.279974749820157
1 112
    -0.330973332655100     0.000000000214863    -0.000000000059199
    -0.000000000007196     0.509595670856716    -0.005906874796008
     0.000000000062129    -0.185095499999999    -0.279975500000000
1 113
     0.060525877814863    -0.318788357113900    -0.128651740809296
    -0.318763958301231     0.428565660814855    -0.074270966227054
    -0.146051250445984    -0.084323249611627    -0.305551750012807
1 114
     0.060525877789250     0.318788357309669     0.128651741659199
     0.318763958120266     0.428565660814855    -0.074270965486997
     0.146051249554017    -0.084323250388371    -0.305551749987194
1 115
    -7.373137130663702    -2.719018518812266     1.960867536415206
    -2.719841785768751    -4.231991864558396     1.132099471520546
     1.938770254539308     1.119361753312506    -3.647123250138311
1 116
    -7.373137130940322     2.719018516213504    -1.960867545065690
     2.719841788527171    -4.231991864558396     1.132099477835055
    -1.938770245460678     1.119361746687474    -3.647123249861691
1 117
     0.612554765189965    -0.000000000195764     0.000000001065771
     0.000000000180967    -0.123535142778287     0.148543086907032
    -0.000000001118521     0.168642500000000    -0.305562500000003
1 118
    -0.004433991063292    -0.000446499097521    -0.004231991610799
    -0.000441673252778    -0.004939523547989     0.002450276185828
     0.003251750150159    -0.001879249999456     0.118821250008931
1 119
     0.008928982000008     0.000000000006261    -0.000000000142974
     0.000000000002275     0.000480355746821     0.001867729382145
     0.000000000150050    -0.005394000000000     0.132094999999999
1 120
    -0.004433991045431     0.000446499101884     0.004231991324644
     0.000441673258748    -0.004939523547989     0.002450276186853
    -0.003251749849841    -0.001879250000544     0.118821249991070
1 121
    -0.005197989529357    -0.000000000004359    -0.000000000143963
    -0.000000000005953    -0.004177709355765    -0.004886695966336
     0.000000000151089     0.003755500000000     0.118820500000000
1 122
     0.002931994085222     0.005101989716449    -0.003899992283283
     0.005103779804487    -0.002967582378197    -0.002251090204677
    -0.005722999834928    -0.003303750006216     0.138426999998108
1 123
     0.002931994081438    -0.005101989708779     0.003899991968712
    -0.005103779809972    -0.002967582378197    -0.002251090216526
     0.005723000165069    -0.003303749993784     0.138427000001893
1 124
     0.002587494773387    -0.003658992625328    -0.001609496912388
    -0.003658959792491     0.006812160404736    -0.000920008274820
     0.004670000157778     0.002696500004458     0.132096500007382
1 125
     0.002587494788151     0.003658992619068     0.001609496611714
     0.003658959790249     0.006812160404736    -0.000920008266326
    -0.004669999842222     0.002696499995542     0.132096499992618
1 126
    -0.005906988079940    -0.000000000007671    -0.000000000167550
     0.000000000005495     0.005874542937384     0.004510263330374
     0.000000000175843     0.006608500000000     0.138430500000000
1 127
    -0.018045463551271    -0.013430472955734     0.036474426164409
    -0.013428310261323    -0.033547825964726    -0.021044142808633
    -0.054071499723499     0.031218000016362     0.208914999892797
1 128
    -0.018045463765677     0.013430472883256    -0.036474426691331
     0.013428310210048    -0.033547825964726    -0.021044142777457
     0.054071500276500     0.031217999983638     0.208915000107204
1 129
     0.040756917488277    -0.000000000000945    -0.000000000051959
    -0.000000000191450    -0.035315962352514    -0.157147920664637
     0.000000000054531     0.000814500000000     0.085517499999999
1 130
    -0.016300966799084    -0.032936933587211     0.136108725373037
    -0.032941896258461     0.021747644556793     0.078602827829673
    -0.000703999875953    -0.000407999959874     0.085519249833364
1 131
     0.028519942631962    -0.000000000019227    -0.000000000079977
     0.000000000079724     0.018752349347049     0.065440387614268
     0.000000000083935     0.016563500000000     0.097416500000004
1 132
    -0.016300967132355     0.032936933588159    -0.136108725609428
     0.032941896449981     0.021747644556793     0.078602827906152
     0.000704000124043    -0.000408000040126     0.085519250166634
1 133
    -0.041294916646194     0.000000000072474    -0.000000000290442
     0.000000000051321    -0.010291275465245     0.042125813326944
     0.000000000304817    -0.062433000000000     0.208908499999998
1 134
     0.021185957265121     0.004232991474432     0.056660385672966
     0.004230248265592     0.026069691576867    -0.032697388427507
     0.014346000092874    -0.008282750005157     0.097418999947626
1 135
     0.021185957160371    -0.004232991455202    -0.056660385849952
    -0.004230248345261     0.026069691576867    -0.032697388437329
    -0.014345999907128    -0.008282749994843     0.097419000052376
1 136
    -0.177723142052723     0.107537783399920    -0.158086181694236
     0.107547437053435    -0.053563129874480     0.091288087850046
     0.348400000700221    -0.201147250131011     0.397042500597022
1 137
    -0.177723140858676    -0.107537782932927     0.158086180359834
    -0.107547436831007    -0.053563129874480     0.091288087600359
    -0.348399999299774    -0.201147249868989     0.397042499402976
1 138
     0.089582819489993    -0.000000000007643     0.000000000108013
     0.000000000069350    -0.032551607405664     0.056924465460951
    -0.000000000113359     0.006584500000000    -0.003465499999998
1 139
    -0.002021496037427    -0.052887893355789    -0.049285900727158
    -0.052895423908716     0.059051425222173    -0.028452995152698
    -0.005700500001759    -0.003292249935568    -0.003463999946572
1 140
     0.008087983547519     0.000000000087491    -0.000000000016883
    -0.000000000083307     0.027946658563544    -0.068381411837698
     0.000000000017719    -0.075370000000000     0.022631999999997
1 141
    -0.002021495930573     0.052887893363432     0.049285900730507
     0.052895423839389     0.059051425222173    -0.028452995029893
     0.005700499998244    -0.003292250064432    -0.003464000053425
1 142
     0.008543982387220    -0.000000000466998    -0.000000000450976
    -0.000000000222361    -0.239800863431306    -0.182520750019809
     0.000000000473296     0.402298999999999     0.397040499999999
1 143
     0.022980453739198    -0.008597482708229    -0.059221380605998
    -0.008609741676033     0.013059960542023     0.034199077511496
    -0.065273000000429     0.037684500010474     0.022626999996378
1 144
     0.022980453731953     0.008597482620739     0.059221380606818
     0.008609741759361     0.013059960542023     0.034199077531485
     0.065272999999568     0.037684499989526     0.022627000003622
19 1
    -0.070528357620967    -0.058788381188083     0.017198965312363
     0.024363908986021     0.078728978997443    -0.050844962904660
    -0.035397000042446    -0.236117749928380    -0.105370500062044
19 2
     0.108131781968703    -0.000000000000002     0.000000000216812