phonopy:
  version: "2.43.5"
  frequency_unit_conversion_factor: 15.633302
  symmetry_tolerance: 1.00000e-05
  configuration:
    cell_filename: "POSCAR"
    create_displacements: ".true."
    dim: "3 3 2"

physical_unit:
  atomic_mass: "AMU"
  length: "angstrom"

space_group:
  type: "Cmc2_1"
  number: 36
  Hall_symbol: "C 2c -2"

supercell_matrix:
- [   3,   0,   0 ]
- [   0,   3,   0 ]
- [   0,   0,   2 ]

primitive_cell:
  lattice:
  - [     3.093859233751109,     0.000000000000000,     0.000000003591422 ] # a
  - [    -1.546929616875555,     2.679353488809399,    -0.000000001795711 ] # b
  - [     0.000000012339482,     0.000000000000000,    10.128639420469941 ] # c
  points:
  - symbol: Si # 1
    coordinates: [  0.999979047922395,  0.000008322441019,  0.187895882543437 ]
    mass: 28.085500
  - symbol: Si # 2
    coordinates: [  0.999970725481383,  0.999991677558981,  0.687895882543437 ]
    mass: 28.085500
  - symbol: Si # 3
    coordinates: [  0.333313522770766,  0.666676818348137,  0.437846977004348 ]
    mass: 28.085500
  - symbol: Si # 4
    coordinates: [  0.666636704422629,  0.333323181651863,  0.937846977004348 ]
    mass: 28.085500
  - symbol: C # 5
    coordinates: [  0.999970883627874,  0.999991538563009,  0.000449294025770 ]
    mass: 12.010700
  - symbol: C # 6
    coordinates: [  0.999979345064865,  0.000008461436991,  0.500449294025771 ]
    mass: 12.010700
  - symbol: C # 7
    coordinates: [  0.333313271154836,  0.666676771599597,  0.249807846426449 ]
    mass: 12.010700
  - symbol: C # 8
    coordinates: [  0.666636499555239,  0.333323228400403,  0.749807846426449 ]
    mass: 12.010700
  reciprocal_lattice: # without 2pi
  - [     0.323220910987460,     0.186612181665578,    -0.000000000393772 ] # a*
  - [     0.000000000000000,     0.373224363331156,     0.000000000000000 ] # b*
  - [    -0.000000000114608,     0.000000000000000,     0.098729943725611 ] # c*

unit_cell:
  lattice:
  - [     3.093859233751109,     0.000000000000000,     0.000000003591422 ] # a
  - [    -1.546929616875555,     2.679353488809400,    -0.000000001795711 ] # b
  - [     0.000000012339482,     0.000000000000000,    10.128639420469941 ] # c
  points:
  - symbol: Si # 1
    coordinates: [  0.999979047922395,  0.000008322441019,  0.187895882543437 ]
    mass: 28.085500
    reduced_to: 1
  - symbol: Si # 2
    coordinates: [  0.999970725481383,  0.999991677558981,  0.687895882543437 ]
    mass: 28.085500
    reduced_to: 2
  - symbol: Si # 3
    coordinates: [  0.333313522770766,  0.666676818348137,  0.437846977004348 ]
    mass: 28.085500
    reduced_to: 3
  - symbol: Si # 4
    coordinates: [  0.666636704422629,  0.333323181651863,  0.937846977004348 ]
    mass: 28.085500
    reduced_to: 4
  - symbol: C # 5
    coordinates: [  0.999970883627874,  0.999991538563009,  0.000449294025770 ]
    mass: 12.010700
    reduced_to: 5
  - symbol: C # 6
    coordinates: [  0.999979345064865,  0.000008461436991,  0.500449294025771 ]
    mass: 12.010700
    reduced_to: 6
  - symbol: C # 7
    coordinates: [  0.333313271154836,  0.666676771599597,  0.249807846426449 ]
    mass: 12.010700
    reduced_to: 7
  - symbol: C # 8
    coordinates: [  0.666636499555239,  0.333323228400403,  0.749807846426449 ]
    mass: 12.010700
    reduced_to: 8

supercell:
  lattice:
  - [     9.281577701253328,     0.000000000000000,     0.000000010774268 ] # a
  - [    -4.640788850626664,     8.038060466428199,    -0.000000005387134 ] # b
  - [     0.000000024678965,     0.000000000000000,    20.257278840939883 ] # c
  points:
  - symbol: Si # 1
    coordinates: [  0.333326349307465,  0.000002774147006,  0.093947941271718 ]
    mass: 28.085500
    reduced_to: 1
  - symbol: Si # 2
    coordinates: [  0.666659682640798,  0.000002774147006,  0.093947941271718 ]
    mass: 28.085500
    reduced_to: 1
  - symbol: Si # 3
    coordinates: [  0.999993015974131,  0.000002774147006,  0.093947941271718 ]
    mass: 28.085500
    reduced_to: 1
  - symbol: Si # 4
    coordinates: [  0.333326349307465,  0.333336107480340,  0.093947941271718 ]
    mass: 28.085500
    reduced_to: 1
  - symbol: Si # 5
    coordinates: [  0.666659682640798,  0.333336107480340,  0.093947941271718 ]
    mass: 28.085500
    reduced_to: 1
  - symbol: Si # 6
    coordinates: [  0.999993015974131,  0.333336107480340,  0.093947941271718 ]
    mass: 28.085500
    reduced_to: 1
  - symbol: Si # 7
    coordinates: [  0.333326349307465,  0.666669440813673,  0.093947941271718 ]
    mass: 28.085500
    reduced_to: 1
  - symbol: Si # 8
    coordinates: [  0.666659682640798,  0.666669440813673,  0.093947941271718 ]
    mass: 28.085500
    reduced_to: 1
  - symbol: Si # 9
    coordinates: [  0.999993015974131,  0.666669440813673,  0.093947941271718 ]
    mass: 28.085500
    reduced_to: 1
  - symbol: Si # 10
    coordinates: [  0.333326349307465,  0.000002774147006,  0.593947941271718 ]
    mass: 28.085500
    reduced_to: 1
  - symbol: Si # 11
    coordinates: [  0.666659682640798,  0.000002774147006,  0.593947941271718 ]
    mass: 28.085500
    reduced_to: 1
  - symbol: Si # 12
    coordinates: [  0.999993015974131,  0.000002774147006,  0.593947941271718 ]
    mass: 28.085500
    reduced_to: 1
  - symbol: Si # 13
    coordinates: [  0.333326349307465,  0.333336107480340,  0.593947941271718 ]
    mass: 28.085500
    reduced_to: 1
  - symbol: Si # 14
    coordinates: [  0.666659682640798,  0.333336107480340,  0.593947941271718 ]
    mass: 28.085500
    reduced_to: 1
  - symbol: Si # 15
    coordinates: [  0.999993015974131,  0.333336107480340,  0.593947941271718 ]
    mass: 28.085500
    reduced_to: 1
  - symbol: Si # 16
    coordinates: [  0.333326349307465,  0.666669440813673,  0.593947941271718 ]
    mass: 28.085500
    reduced_to: 1
  - symbol: Si # 17
    coordinates: [  0.666659682640798,  0.666669440813673,  0.593947941271718 ]
    mass: 28.085500
    reduced_to: 1
  - symbol: Si # 18
    coordinates: [  0.999993015974131,  0.666669440813673,  0.593947941271718 ]
    mass: 28.085500
    reduced_to: 1
  - symbol: Si # 19
    coordinates: [  0.333323575160461,  0.333330559186327,  0.343947941271718 ]
    mass: 28.085500
    reduced_to: 19
  - symbol: Si # 20
    coordinates: [  0.666656908493794,  0.333330559186327,  0.343947941271718 ]
    mass: 28.085500
    reduced_to: 19
  - symbol: Si # 21
    coordinates: [  0.999990241827128,  0.333330559186327,  0.343947941271718 ]
    mass: 28.085500
    reduced_to: 19
  - symbol: Si # 22
    coordinates: [  0.333323575160461,  0.666663892519660,  0.343947941271718 ]
    mass: 28.085500
    reduced_to: 19
  - symbol: Si # 23
    coordinates: [  0.666656908493794,  0.666663892519660,  0.343947941271718 ]
    mass: 28.085500
    reduced_to: 19
  - symbol: Si # 24
    coordinates: [  0.999990241827128,  0.666663892519660,  0.343947941271718 ]
    mass: 28.085500
    reduced_to: 19
  - symbol: Si # 25
    coordinates: [  0.333323575160461,  0.999997225852994,  0.343947941271718 ]
    mass: 28.085500
    reduced_to: 19
  - symbol: Si # 26
    coordinates: [  0.666656908493794,  0.999997225852994,  0.343947941271718 ]
    mass: 28.085500
    reduced_to: 19
  - symbol: Si # 27
    coordinates: [  0.999990241827128,  0.999997225852994,  0.343947941271718 ]
    mass: 28.085500
    reduced_to: 19
  - symbol: Si # 28
    coordinates: [  0.333323575160461,  0.333330559186327,  0.843947941271718 ]
    mass: 28.085500
    reduced_to: 19
  - symbol: Si # 29
    coordinates: [  0.666656908493794,  0.333330559186327,  0.843947941271718 ]
    mass: 28.085500
    reduced_to: 19
  - symbol: Si # 30
    coordinates: [  0.999990241827128,  0.333330559186327,  0.843947941271718 ]
    mass: 28.085500
    reduced_to: 19
  - symbol: Si # 31
    coordinates: [  0.333323575160461,  0.666663892519660,  0.843947941271718 ]
    mass: 28.085500
    reduced_to: 19
  - symbol: Si # 32
    coordinates: [  0.666656908493794,  0.666663892519660,  0.843947941271718 ]
    mass: 28.085500
    reduced_to: 19
  - symbol: Si # 33
    coordinates: [  0.999990241827128,  0.666663892519660,  0.843947941271718 ]
    mass: 28.085500
    reduced_to: 19
  - symbol: Si # 34
    coordinates: [  0.333323575160461,  0.999997225852994,  0.843947941271718 ]
    mass: 28.085500
    reduced_to: 19
  - symbol: Si # 35
    coordinates: [  0.666656908493794,  0.999997225852994,  0.843947941271718 ]
    mass: 28.085500
    reduced_to: 19
  - symbol: Si # 36
    coordinates: [  0.999990241827128,  0.999997225852994,  0.843947941271718 ]
    mass: 28.085500
    reduced_to: 19
  - symbol: Si # 37
    coordinates: [  0.111104507590255,  0.222225606116046,  0.218923488502174 ]
    mass: 28.085500
    reduced_to: 37
  - symbol: Si # 38
    coordinates: [  0.444437840923589,  0.222225606116046,  0.218923488502174 ]
    mass: 28.085500
    reduced_to: 37
  - symbol: Si # 39
    coordinates: [  0.777771174256922,  0.222225606116046,  0.218923488502174 ]
    mass: 28.085500
    reduced_to: 37
  - symbol: Si # 40
    coordinates: [  0.111104507590255,  0.555558939449379,  0.218923488502174 ]
    mass: 28.085500
    reduced_to: 37
  - symbol: Si # 41
    coordinates: [  0.444437840923589,  0.555558939449379,  0.218923488502174 ]
    mass: 28.085500
    reduced_to: 37
  - symbol: Si # 42
    coordinates: [  0.777771174256922,  0.555558939449379,  0.218923488502174 ]
    mass: 28.085500
    reduced_to: 37
  - symbol: Si # 43
    coordinates: [  0.111104507590255,  0.888892272782712,  0.218923488502174 ]
    mass: 28.085500
    reduced_to: 37
  - symbol: Si # 44
    coordinates: [  0.444437840923589,  0.888892272782712,  0.218923488502174 ]
    mass: 28.085500
    reduced_to: 37
  - symbol: Si # 45
    coordinates: [  0.777771174256922,  0.888892272782712,  0.218923488502174 ]
    mass: 28.085500
    reduced_to: 37
  - symbol: Si # 46
    coordinates: [  0.111104507590255,  0.222225606116046,  0.718923488502174 ]
    mass: 28.085500
    reduced_to: 37
  - symbol: Si # 47
    coordinates: [  0.444437840923589,  0.222225606116046,  0.718923488502174 ]
    mass: 28.085500
    reduced_to: 37
  - symbol: Si # 48
    coordinates: [  0.777771174256922,  0.222225606116046,  0.718923488502174 ]
    mass: 28.085500
    reduced_to: 37
  - symbol: Si # 49
    coordinates: [  0.111104507590255,  0.555558939449379,  0.718923488502174 ]
    mass: 28.085500
    reduced_to: 37
  - symbol: Si # 50
    coordinates: [  0.444437840923589,  0.555558939449379,  0.718923488502174 ]
    mass: 28.085500
    reduced_to: 37
  - symbol: Si # 51
    coordinates: [  0.777771174256922,  0.555558939449379,  0.718923488502174 ]
    mass: 28.085500
    reduced_to: 37
  - symbol: Si # 52
    coordinates: [  0.111104507590255,  0.888892272782712,  0.718923488502174 ]
    mass: 28.085500
    reduced_to: 37
  - symbol: Si # 53
    coordinates: [  0.444437840923589,  0.888892272782712,  0.718923488502174 ]
    mass: 28.085500
    reduced_to: 37
  - symbol: Si # 54
    coordinates: [  0.777771174256922,  0.888892272782712,  0.718923488502174 ]
    mass: 28.085500
    reduced_to: 37
  - symbol: Si # 55
    coordinates: [  0.222212234807543,  0.111107727217288,  0.468923488502174 ]
    mass: 28.085500
    reduced_to: 55
  - symbol: Si # 56
    coordinates: [  0.555545568140876,  0.111107727217288,  0.468923488502174 ]
    mass: 28.085500
    reduced_to: 55
  - symbol: Si # 57
    coordinates: [  0.888878901474210,  0.111107727217288,  0.468923488502174 ]
    mass: 28.085500
    reduced_to: 55
  - symbol: Si # 58
    coordinates: [  0.222212234807543,  0.444441060550621,  0.468923488502174 ]
    mass: 28.085500
    reduced_to: 55
  - symbol: Si # 59
    coordinates: [  0.555545568140876,  0.444441060550621,  0.468923488502174 ]
    mass: 28.085500
    reduced_to: 55
  - symbol: Si # 60
    coordinates: [  0.888878901474210,  0.444441060550621,  0.468923488502174 ]
    mass: 28.085500
    reduced_to: 55
  - symbol: Si # 61
    coordinates: [  0.222212234807543,  0.777774393883954,  0.468923488502174 ]
    mass: 28.085500
    reduced_to: 55
  - symbol: Si # 62
    coordinates: [  0.555545568140876,  0.777774393883954,  0.468923488502174 ]
    mass: 28.085500
    reduced_to: 55
  - symbol: Si # 63
    coordinates: [  0.888878901474210,  0.777774393883954,  0.468923488502174 ]
    mass: 28.085500
    reduced_to: 55
  - symbol: Si # 64
    coordinates: [  0.222212234807543,  0.111107727217288,  0.968923488502174 ]
    mass: 28.085500
    reduced_to: 55
  - symbol: Si # 65
    coordinates: [  0.555545568140876,  0.111107727217288,  0.968923488502174 ]
    mass: 28.085500
    reduced_to: 55
  - symbol: Si # 66
    coordinates: [  0.888878901474210,  0.111107727217288,  0.968923488502174 ]
    mass: 28.085500
    reduced_to: 55
  - symbol: Si # 67
    coordinates: [  0.222212234807543,  0.444441060550621,  0.968923488502174 ]
    mass: 28.085500
    reduced_to: 55
  - symbol: Si # 68
    coordinates: [  0.555545568140876,  0.444441060550621,  0.968923488502174 ]
    mass: 28.085500
    reduced_to: 55
  - symbol: Si # 69
    coordinates: [  0.888878901474210,  0.444441060550621,  0.968923488502174 ]
    mass: 28.085500
    reduced_to: 55
  - symbol: Si # 70
    coordinates: [  0.222212234807543,  0.777774393883954,  0.968923488502174 ]
    mass: 28.085500
    reduced_to: 55
  - symbol: Si # 71
    coordinates: [  0.555545568140876,  0.777774393883954,  0.968923488502174 ]
    mass: 28.085500
    reduced_to: 55
  - symbol: Si # 72
    coordinates: [  0.888878901474210,  0.777774393883954,  0.968923488502174 ]
    mass: 28.085500
    reduced_to: 55
  - symbol: C # 73
    coordinates: [  0.333323627875958,  0.333330512854336,  0.000224647012885 ]
    mass: 12.010700
    reduced_to: 73
  - symbol: C # 74
    coordinates: [  0.666656961209291,  0.333330512854336,  0.000224647012885 ]
    mass: 12.010700
    reduced_to: 73
  - symbol: C # 75
    coordinates: [  0.999990294542625,  0.333330512854336,  0.000224647012885 ]
    mass: 12.010700
    reduced_to: 73
  - symbol: C # 76
    coordinates: [  0.333323627875958,  0.666663846187670,  0.000224647012885 ]
    mass: 12.010700
    reduced_to: 73
  - symbol: C # 77
    coordinates: [  0.666656961209291,  0.666663846187670,  0.000224647012885 ]
    mass: 12.010700
    reduced_to: 73
  - symbol: C # 78
    coordinates: [  0.999990294542625,  0.666663846187670,  0.000224647012885 ]
    mass: 12.010700
    reduced_to: 73
  - symbol: C # 79
    coordinates: [  0.333323627875958,  0.999997179521003,  0.000224647012885 ]
    mass: 12.010700
    reduced_to: 73
  - symbol: C # 80
    coordinates: [  0.666656961209291,  0.999997179521003,  0.000224647012885 ]
    mass: 12.010700
    reduced_to: 73
  - symbol: C # 81
    coordinates: [  0.999990294542625,  0.999997179521003,  0.000224647012885 ]
    mass: 12.010700
    reduced_to: 73
  - symbol: C # 82
    coordinates: [  0.333323627875958,  0.333330512854336,  0.500224647012885 ]
    mass: 12.010700
    reduced_to: 73
  - symbol: C # 83
    coordinates: [  0.666656961209291,  0.333330512854336,  0.500224647012885 ]
    mass: 12.010700
    reduced_to: 73
  - symbol: C # 84
    coordinates: [  0.999990294542625,  0.333330512854336,  0.500224647012885 ]
    mass: 12.010700
    reduced_to: 73
  - symbol: C # 85
    coordinates: [  0.333323627875958,  0.666663846187670,  0.500224647012885 ]
    mass: 12.010700
    reduced_to: 73
  - symbol: C # 86
    coordinates: [  0.666656961209291,  0.666663846187670,  0.500224647012885 ]
    mass: 12.010700
    reduced_to: 73
  - symbol: C # 87
    coordinates: [  0.999990294542625,  0.666663846187670,  0.500224647012885 ]
    mass: 12.010700
    reduced_to: 73
  - symbol: C # 88
    coordinates: [  0.333323627875958,  0.999997179521003,  0.500224647012885 ]
    mass: 12.010700
    reduced_to: 73
  - symbol: C # 89
    coordinates: [  0.666656961209291,  0.999997179521003,  0.500224647012885 ]
    mass: 12.010700
    reduced_to: 73
  - symbol: C # 90
    coordinates: [  0.999990294542625,  0.999997179521003,  0.500224647012885 ]
    mass: 12.010700
    reduced_to: 73
  - symbol: C # 91
    coordinates: [  0.333326448354955,  0.000002820478997,  0.250224647012885 ]
    mass: 12.010700
    reduced_to: 91
  - symbol: C # 92
    coordinates: [  0.666659781688288,  0.000002820478997,  0.250224647012885 ]
    mass: 12.010700
    reduced_to: 91
  - symbol: C # 93
    coordinates: [  0.999993115021622,  0.000002820478997,  0.250224647012885 ]
    mass: 12.010700
    reduced_to: 91
  - symbol: C # 94
    coordinates: [  0.333326448354955,  0.333336153812330,  0.250224647012885 ]
    mass: 12.010700
    reduced_to: 91
  - symbol: C # 95
    coordinates: [  0.666659781688288,  0.333336153812330,  0.250224647012885 ]
    mass: 12.010700
    reduced_to: 91
  - symbol: C # 96
    coordinates: [  0.999993115021622,  0.333336153812330,  0.250224647012885 ]
    mass: 12.010700
    reduced_to: 91
  - symbol: C # 97
    coordinates: [  0.333326448354955,  0.666669487145664,  0.250224647012885 ]
    mass: 12.010700
    reduced_to: 91
  - symbol: C # 98
    coordinates: [  0.666659781688288,  0.666669487145664,  0.250224647012885 ]
    mass: 12.010700
    reduced_to: 91
  - symbol: C # 99
    coordinates: [  0.999993115021622,  0.666669487145664,  0.250224647012885 ]
    mass: 12.010700
    reduced_to: 91
  - symbol: C # 100
    coordinates: [  0.333326448354955,  0.000002820478997,  0.750224647012885 ]
    mass: 12.010700
    reduced_to: 91
  - symbol: C # 101
    coordinates: [  0.666659781688288,  0.000002820478997,  0.750224647012885 ]
    mass: 12.010700
    reduced_to: 91
  - symbol: C # 102
    coordinates: [  0.999993115021622,  0.000002820478997,  0.750224647012885 ]
    mass: 12.010700
    reduced_to: 91
  - symbol: C # 103
    coordinates: [  0.333326448354955,  0.333336153812330,  0.750224647012885 ]
    mass: 12.010700
    reduced_to: 91
  - symbol: C # 104
    coordinates: [  0.666659781688288,  0.333336153812330,  0.750224647012885 ]
    mass: 12.010700
    reduced_to: 91
  - symbol: C # 105
    coordinates: [  0.999993115021622,  0.333336153812330,  0.750224647012885 ]
    mass: 12.010700
    reduced_to: 91
  - symbol: C # 106
    coordinates: [  0.333326448354955,  0.666669487145664,  0.750224647012885 ]
    mass: 12.010700
    reduced_to: 91
  - symbol: C # 107
    coordinates: [  0.666659781688288,  0.666669487145664,  0.750224647012885 ]
    mass: 12.010700
    reduced_to: 91
  - symbol: C # 108
    coordinates: [  0.999993115021622,  0.666669487145664,  0.750224647012885 ]
    mass: 12.010700
    reduced_to: 91
  - symbol: C # 109
    coordinates: [  0.111104423718279,  0.222225590533199,  0.124903923213225 ]
    mass: 12.010700
    reduced_to: 109
  - symbol: C # 110
    coordinates: [  0.444437757051612,  0.222225590533199,  0.124903923213225 ]
    mass: 12.010700
    reduced_to: 109
  - symbol: C # 111
    coordinates: [  0.777771090384945,  0.222225590533199,  0.124903923213225 ]
    mass: 12.010700
    reduced_to: 109
  - symbol: C # 112
    coordinates: [  0.111104423718279,  0.555558923866532,  0.124903923213225 ]
    mass: 12.010700
    reduced_to: 109
  - symbol: C # 113
    coordinates: [  0.444437757051612,  0.555558923866532,  0.124903923213225 ]
    mass: 12.010700
    reduced_to: 109
  - symbol: C # 114
    coordinates: [  0.777771090384945,  0.555558923866532,  0.124903923213225 ]
    mass: 12.010700
    reduced_to: 109
  - symbol: C # 115
    coordinates: [  0.111104423718279,  0.888892257199866,  0.124903923213225 ]
    mass: 12.010700
    reduced_to: 109
  - symbol: C # 116
    coordinates: [  0.444437757051612,  0.888892257199866,  0.124903923213225 ]
    mass: 12.010700
    reduced_to: 109
  - symbol: C # 117
    coordinates: [  0.777771090384945,  0.888892257199866,  0.124903923213225 ]
    mass: 12.010700
    reduced_to: 109
  - symbol: C # 118
    coordinates: [  0.111104423718279,  0.222225590533199,  0.624903923213225 ]
    mass: 12.010700
    reduced_to: 109
  - symbol: C # 119
    coordinates: [  0.444437757051612,  0.222225590533199,  0.624903923213225 ]
    mass: 12.010700
    reduced_to: 109
  - symbol: C # 120
    coordinates: [  0.777771090384945,  0.222225590533199,  0.624903923213225 ]
    mass: 12.010700
    reduced_to: 109
  - symbol: C # 121
    coordinates: [  0.111104423718279,  0.555558923866532,  0.624903923213225 ]
    mass: 12.010700
    reduced_to: 109
  - symbol: C # 122
    coordinates: [  0.444437757051612,  0.555558923866532,  0.624903923213225 ]
    mass: 12.010700
    reduced_to: 109
  - symbol: C # 123
    coordinates: [  0.777771090384945,  0.555558923866532,  0.624903923213225 ]
    mass: 12.010700
    reduced_to: 109
  - symbol: C # 124
    coordinates: [  0.111104423718279,  0.888892257199866,  0.624903923213225 ]
    mass: 12.010700
    reduced_to: 109
  - symbol: C # 125
    coordinates: [  0.444437757051612,  0.888892257199866,  0.624903923213225 ]
    mass: 12.010700
    reduced_to: 109
  - symbol: C # 126
    coordinates: [  0.777771090384945,  0.888892257199866,  0.624903923213225 ]
    mass: 12.010700
    reduced_to: 109
  - symbol: C # 127
    coordinates: [  0.222212166518413,  0.111107742800134,  0.374903923213225 ]
    mass: 12.010700
    reduced_to: 127
  - symbol: C # 128
    coordinates: [  0.555545499851746,  0.111107742800134,  0.374903923213225 ]
    mass: 12.010700
    reduced_to: 127
  - symbol: C # 129
    coordinates: [  0.888878833185079,  0.111107742800134,  0.374903923213225 ]
    mass: 12.010700
    reduced_to: 127
  - symbol: C # 130
    coordinates: [  0.222212166518413,  0.444441076133468,  0.374903923213225 ]
    mass: 12.010700
    reduced_to: 127
  - symbol: C # 131
    coordinates: [  0.555545499851746,  0.444441076133468,  0.374903923213225 ]
    mass: 12.010700
    reduced_to: 127
  - symbol: C # 132
    coordinates: [  0.888878833185079,  0.444441076133468,  0.374903923213225 ]
    mass: 12.010700
    reduced_to: 127
  - symbol: C # 133
    coordinates: [  0.222212166518413,  0.777774409466801,  0.374903923213225 ]
    mass: 12.010700
    reduced_to: 127
  - symbol: C # 134
    coordinates: [  0.555545499851746,  0.777774409466801,  0.374903923213225 ]
    mass: 12.010700
    reduced_to: 127
  - symbol: C # 135
    coordinates: [  0.888878833185079,  0.777774409466801,  0.374903923213225 ]
    mass: 12.010700
    reduced_to: 127
  - symbol: C # 136
    coordinates: [  0.222212166518413,  0.111107742800134,  0.874903923213225 ]
    mass: 12.010700
    reduced_to: 127
  - symbol: C # 137
    coordinates: [  0.555545499851746,  0.111107742800134,  0.874903923213225 ]
    mass: 12.010700
    reduced_to: 127
  - symbol: C # 138
    coordinates: [  0.888878833185079,  0.111107742800134,  0.874903923213225 ]
    mass: 12.010700
    reduced_to: 127
  - symbol: C # 139
    coordinates: [  0.222212166518413,  0.444441076133468,  0.874903923213225 ]
    mass: 12.010700
    reduced_to: 127
  - symbol: C # 140
    coordinates: [  0.555545499851746,  0.444441076133468,  0.874903923213225 ]
    mass: 12.010700
    reduced_to: 127
  - symbol: C # 141
    coordinates: [  0.888878833185079,  0.444441076133468,  0.874903923213225 ]
    mass: 12.010700
    reduced_to: 127
  - symbol: C # 142
    coordinates: [  0.222212166518413,  0.777774409466801,  0.874903923213225 ]
    mass: 12.010700
    reduced_to: 127
  - symbol: C # 143
    coordinates: [  0.555545499851746,  0.777774409466801,  0.874903923213225 ]
    mass: 12.010700
    reduced_to: 127
  - symbol: C # 144
    coordinates: [  0.888878833185079,  0.777774409466801,  0.874903923213225 ]
    mass: 12.010700
    reduced_to: 127

displacements:
- atom:    1
  displacement:
    [  -0.0050000100817392,  0.0086602482171417, -0.0000000000058041 ]
- atom:    1
  displacement:
    [   0.0050000100817392, -0.0086602482171417,  0.0000000000058041 ]
- atom:    1
  displacement:
    [   0.0000000000121828,  0.0000000000000000,  0.0100000000000000 ]
- atom:    1
  displacement:
    [  -0.0000000000121828,  0.0000000000000000, -0.0100000000000000 ]
- atom:   37
  displacement:
    [  -0.0050000100817392,  0.0086602482171417, -0.0000000000058041 ]
- atom:   37
  displacement:
    [   0.0050000100817392, -0.0086602482171417,  0.0000000000058041 ]
- atom:   37
  displacement:
    [   0.0000000000121828,  0.0000000000000000,  0.0100000000000000 ]
- atom:   37
  displacement:
    [  -0.0000000000121828,  0.0000000000000000, -0.0100000000000000 ]
- atom:   73
  displacement:
    [  -0.0050000100817392,  0.0086602482171417, -0.0000000000058041 ]
- atom:   73
  displacement:
    [   0.0050000100817392, -0.0086602482171417,  0.0000000000058041 ]
- atom:   73
  displacement:
    [   0.0000000000121828,  0.0000000000000000,  0.0100000000000000 ]
- atom:   73
  displacement:
    [  -0.0000000000121828,  0.0000000000000000, -0.0100000000000000 ]
- atom:  109
  displacement:
    [  -0.0050000100817392,  0.0086602482171417, -0.0000000000058041 ]
- atom:  109
  displacement:
    [   0.0050000100817392, -0.0086602482171417,  0.0000000000058041 ]
- atom:  109
  displacement:
    [   0.0000000000121828,  0.0000000000000000,  0.0100000000000000 ]
- atom:  109
  displacement:
    [  -0.0000000000121828,  0.0000000000000000, -0.0100000000000000 ]
